# vtk DataFile Version 3.0
Lines and points representing subcelluar element cells 
ASCII

DATASET UNSTRUCTURED_GRID
POINTS 70 float
25.0402 25.0027 0
25.0341 25.0218 0
25.0186 25.0332 0
25.0042 25.0332 0
24.9922 25.0246 0
24.986 25.0056 0
24.992 24.9866 0
25.0081 24.9747 0
25.0212 24.9746 0
25.0339 24.9838 0
24.5932 24.2605 0
24.5871 24.2795 0
24.5709 24.2913 0
24.5566 24.2914 0
24.543 24.2816 0
24.5367 24.2626 0
24.5428 24.2436 0
24.5584 24.2321 0
24.5739 24.2321 0
24.5869 24.2415 0
24.6173 25.7234 0
24.6137 25.7351 0
24.6051 25.7416 0
24.5851 25.742 0
24.5687 25.7306 0
24.5621 25.7117 0
24.5653 25.7013 0
24.575 25.6939 0
24.5945 25.6936 0
24.6109 25.705 0
25.455 24.2429 0
25.4514 24.2538 0
25.4351 24.2654 0
25.4151 24.2654 0
25.399 24.2535 0
25.3954 24.2423 0
25.3994 24.2302 0
25.4152 24.2188 0
25.4352 24.2189 0
25.451 24.2304 0
25.4471 25.7318 0
25.4408 25.7508 0
25.4246 25.7625 0
25.4078 25.7624 0
25.3946 25.7528 0
25.3887 25.7343 0
25.3949 25.7153 0
25.4111 25.7036 0
25.4285 25.7037 0
25.4409 25.7127 0
24.1629 24.9932 0
24.1566 25.0122 0
24.1403 25.0238 0
24.1252 25.0237 0
24.1142 25.0155 0
24.1085 24.9973 0
24.1149 24.9784 0
24.1311 24.9668 0
24.1471 24.9669 0
24.1569 24.9742 0
25.8666 24.9777 0
25.8605 24.9968 0
25.8444 25.0086 0
25.8244 25.0087 0
25.8149 25.0019 0
25.8106 24.9888 0
25.8165 24.9701 0
25.8326 24.9582 0
25.852 24.9581 0
25.8627 24.9657 0

CELLS 70 210
2 0 1
2 1 2
2 2 3
2 3 4
2 4 5
2 5 6
2 6 7
2 7 8
2 8 9
2 9 0
2 10 11
2 11 12
2 12 13
2 13 14
2 14 15
2 15 16
2 16 17
2 17 18
2 18 19
2 19 10
2 20 21
2 21 22
2 22 23
2 23 24
2 24 25
2 25 26
2 26 27
2 27 28
2 28 29
2 29 20
2 30 31
2 31 32
2 32 33
2 33 34
2 34 35
2 35 36
2 36 37
2 37 38
2 38 39
2 39 30
2 40 41
2 41 42
2 42 43
2 43 44
2 44 45
2 45 46
2 46 47
2 47 48
2 48 49
2 49 40
2 50 51
2 51 52
2 52 53
2 53 54
2 54 55
2 55 56
2 56 57
2 57 58
2 58 59
2 59 50
2 60 61
2 61 62
2 62 63
2 63 64
2 64 65
2 65 66
2 66 67
2 67 68
2 68 69
2 69 60
CELL_TYPES 70
3
3
3
3
3
3
3
3
3
3
3
3
3
3
3
3
3
3
3
3
3
3
3
3
3
3
3
3
3
3
3
3
3
3
3
3
3
3
3
3
3
3
3
3
3
3
3
3
3
3
3
3
3
3
3
3
3
3
3
3
3
3
3
3
3
3
3
3
3
3
POINT_DATA 70
SCALARS relative_tension float
LOOKUP_TABLE default
0
0
0
0
0
0
0
0
0
0
0
0
0
0
0
0
0
0
0
0
0
0
0
0
0
0
0
0
0
0
0
0
0
0
0
0
0
0
0
0
0
0
0
0
0
0
0
0
0
0
0
0
0
0
0
0
0
0
0
0
0
0
0
0
0
0
0
0
0
0

