# vtk DataFile Version 3.0
Lines and points representing subcelluar element cells 
ASCII

DATASET UNSTRUCTURED_GRID
POINTS 56 float
25.0445 24.9924 0
25.0369 25.0101 0
25.029 25.0132 0
25.0127 25.0061 0
25.0053 24.9875 0
25.0131 24.9695 0
25.0204 24.9666 0
25.0372 24.9738 0
24.5824 24.3031 0
24.5801 24.3083 0
24.5629 24.315 0
24.5446 24.307 0
24.5377 24.2893 0
24.5402 24.2837 0
24.5571 24.2771 0
24.5755 24.2852 0
24.5769 25.7262 0
24.5693 25.7447 0
24.552 25.7519 0
24.5425 25.7479 0
24.5353 25.7304 0
24.5429 25.712 0
24.5602 25.7048 0
24.5697 25.7087 0
25.4471 24.2539 0
25.4398 24.2716 0
25.4213 24.2792 0
25.4033 24.2718 0
25.3977 24.2582 0
25.405 24.2404 0
25.4235 24.2328 0
25.4414 24.2402 0
25.4708 25.7439 0
25.4629 25.7622 0
25.4451 25.7693 0
25.4375 25.766 0
25.4309 25.7493 0
25.4389 25.731 0
25.457 25.7238 0
25.4641 25.7268 0
24.2011 25.008 0
24.194 25.0268 0
24.1774 25.0343 0
24.1718 25.0321 0
24.1637 25.0142 0
24.1708 24.9955 0
24.187 24.9882 0
24.1932 24.9905 0
25.8834 24.9973 0
25.8758 25.0154 0
25.8631 25.0206 0
25.8463 25.0136 0
25.8386 24.9951 0
25.8463 24.9767 0
25.8586 24.9716 0
25.8757 24.9788 0

CELLS 56 168
2 0 1
2 1 2
2 2 3
2 3 4
2 4 5
2 5 6
2 6 7
2 7 0
2 8 9
2 9 10
2 10 11
2 11 12
2 12 13
2 13 14
2 14 15
2 15 8
2 16 17
2 17 18
2 18 19
2 19 20
2 20 21
2 21 22
2 22 23
2 23 16
2 24 25
2 25 26
2 26 27
2 27 28
2 28 29
2 29 30
2 30 31
2 31 24
2 32 33
2 33 34
2 34 35
2 35 36
2 36 37
2 37 38
2 38 39
2 39 32
2 40 41
2 41 42
2 42 43
2 43 44
2 44 45
2 45 46
2 46 47
2 47 40
2 48 49
2 49 50
2 50 51
2 51 52
2 52 53
2 53 54
2 54 55
2 55 48
CELL_TYPES 56
3
3
3
3
3
3
3
3
3
3
3
3
3
3
3
3
3
3
3
3
3
3
3
3
3
3
3
3
3
3
3
3
3
3
3
3
3
3
3
3
3
3
3
3
3
3
3
3
3
3
3
3
3
3
3
3
POINT_DATA 56
SCALARS relative_tension float
LOOKUP_TABLE default
0
0
0
0
0
0
0
0
0
0
0
0
0
0
0
0
0
0
0
0
0
0
0
0
0
0
0
0
0
0
0
0
0
0
0
0
0
0
0
0
0
0
0
0
0
0
0
0
0
0
0
0
0
0
0
0

