# vtk DataFile Version 3.0
Lines and points representing subcelluar element cells 
ASCII

DATASET UNSTRUCTURED_GRID
POINTS 140 float
25.4 25 0
25.3804 25.1236 0
25.3236 25.2351 0
25.2351 25.3236 0
25.1236 25.3804 0
25 25.4 0
24.8764 25.3804 0
24.7649 25.3236 0
24.6764 25.2351 0
24.6196 25.1236 0
24.6 25 0
24.6196 24.8764 0
24.6764 24.7649 0
24.7649 24.6764 0
24.8764 24.6196 0
25 24.6 0
25.1236 24.6196 0
25.2351 24.6764 0
25.3236 24.7649 0
25.3804 24.8764 0
24.9749 24.2641 0
24.9553 24.3877 0
24.8985 24.4992 0
24.81 24.5877 0
24.6985 24.6445 0
24.5749 24.6641 0
24.4513 24.6445 0
24.3398 24.5877 0
24.2513 24.4992 0
24.1945 24.3877 0
24.1749 24.2641 0
24.1945 24.1405 0
24.2513 24.0289 0
24.3398 23.9405 0
24.4513 23.8836 0
24.5749 23.8641 0
24.6985 23.8836 0
24.81 23.9405 0
24.8985 24.0289 0
24.9553 24.1405 0
24.975 25.736 0
24.9554 25.8596 0
24.8986 25.9711 0
24.8101 26.0596 0
24.6986 26.1164 0
24.575 26.136 0
24.4514 26.1164 0
24.3399 26.0596 0
24.2514 25.9711 0
24.1946 25.8596 0
24.175 25.736 0
24.1946 25.6124 0
24.2514 25.5009 0
24.3399 25.4124 0
24.4514 25.3556 0
24.575 25.336 0
24.6986 25.3556 0
24.8101 25.4124 0
24.8986 25.5009 0
24.9554 25.6124 0
25.8251 24.2641 0
25.8055 24.3877 0
25.7487 24.4992 0
25.6602 24.5877 0
25.5487 24.6445 0
25.4251 24.6641 0
25.3015 24.6445 0
25.19 24.5877 0
25.1015 24.4992 0
25.0447 24.3877 0
25.0251 24.2641 0
25.0447 24.1405 0
25.1015 24.0289 0
25.19 23.9405 0
25.3015 23.8836 0
25.4251 23.8641 0
25.5487 23.8836 0
25.6602 23.9405 0
25.7487 24.0289 0
25.8055 24.1405 0
25.825 25.736 0
25.8054 25.8596 0
25.7486 25.9711 0
25.6601 26.0596 0
25.5486 26.1164 0
25.425 26.136 0
25.3014 26.1164 0
25.1899 26.0596 0
25.1014 25.9711 0
25.0446 25.8596 0
25.025 25.736 0
25.0446 25.6124 0
25.1014 25.5009 0
25.1899 25.4124 0
25.3014 25.3556 0
25.425 25.336 0
25.5486 25.3556 0
25.6601 25.4124 0
25.7486 25.5009 0
25.8054 25.6124 0
24.5499 25 0
24.5303 25.1236 0
24.4735 25.2351 0
24.385 25.3236 0
24.2735 25.3804 0
24.1499 25.4 0
24.0263 25.3804 0
23.9148 25.3236 0
23.8263 25.2351 0
23.7695 25.1236 0
23.7499 25 0
23.7695 24.8764 0
23.8263 24.7649 0
23.9148 24.6764 0
24.0263 24.6196 0
24.1499 24.6 0
24.2735 24.6196 0
24.385 24.6764 0
24.4735 24.7649 0
24.5303 24.8764 0
26.25 25.0001 0
26.2304 25.1237 0
26.1736 25.2352 0
26.0851 25.3237 0
25.9736 25.3805 0
25.85 25.4001 0
25.7264 25.3805 0
25.6149 25.3237 0
25.5264 25.2352 0
25.4696 25.1237 0
25.45 25.0001 0
25.4696 24.8765 0
25.5264 24.7649 0
25.6149 24.6765 0
25.7264 24.6196 0
25.85 24.6001 0
25.9736 24.6196 0
26.0851 24.6765 0
26.1736 24.7649 0
26.2304 24.8765 0

CELLS 140 420
2 0 1
2 1 2
2 2 3
2 3 4
2 4 5
2 5 6
2 6 7
2 7 8
2 8 9
2 9 10
2 10 11
2 11 12
2 12 13
2 13 14
2 14 15
2 15 16
2 16 17
2 17 18
2 18 19
2 19 0
2 20 21
2 21 22
2 22 23
2 23 24
2 24 25
2 25 26
2 26 27
2 27 28
2 28 29
2 29 30
2 30 31
2 31 32
2 32 33
2 33 34
2 34 35
2 35 36
2 36 37
2 37 38
2 38 39
2 39 20
2 40 41
2 41 42
2 42 43
2 43 44
2 44 45
2 45 46
2 46 47
2 47 48
2 48 49
2 49 50
2 50 51
2 51 52
2 52 53
2 53 54
2 54 55
2 55 56
2 56 57
2 57 58
2 58 59
2 59 40
2 60 61
2 61 62
2 62 63
2 63 64
2 64 65
2 65 66
2 66 67
2 67 68
2 68 69
2 69 70
2 70 71
2 71 72
2 72 73
2 73 74
2 74 75
2 75 76
2 76 77
2 77 78
2 78 79
2 79 60
2 80 81
2 81 82
2 82 83
2 83 84
2 84 85
2 85 86
2 86 87
2 87 88
2 88 89
2 89 90
2 90 91
2 91 92
2 92 93
2 93 94
2 94 95
2 95 96
2 96 97
2 97 98
2 98 99
2 99 80
2 100 101
2 101 102
2 102 103
2 103 104
2 104 105
2 105 106
2 106 107
2 107 108
2 108 109
2 109 110
2 110 111
2 111 112
2 112 113
2 113 114
2 114 115
2 115 116
2 116 117
2 117 118
2 118 119
2 119 100
2 120 121
2 121 122
2 122 123
2 123 124
2 124 125
2 125 126
2 126 127
2 127 128
2 128 129
2 129 130
2 130 131
2 131 132
2 132 133
2 133 134
2 134 135
2 135 136
2 136 137
2 137 138
2 138 139
2 139 120
CELL_TYPES 140
3
3
3
3
3
3
3
3
3
3
3
3
3
3
3
3
3
3
3
3
3
3
3
3
3
3
3
3
3
3
3
3
3
3
3
3
3
3
3
3
3
3
3
3
3
3
3
3
3
3
3
3
3
3
3
3
3
3
3
3
3
3
3
3
3
3
3
3
3
3
3
3
3
3
3
3
3
3
3
3
3
3
3
3
3
3
3
3
3
3
3
3
3
3
3
3
3
3
3
3
3
3
3
3
3
3
3
3
3
3
3
3
3
3
3
3
3
3
3
3
3
3
3
3
3
3
3
3
3
3
3
3
3
3
3
3
3
3
3
3
POINT_DATA 140
SCALARS relative_tension float
LOOKUP_TABLE default
0
0
0
0
0
0
0
0
0
0
0
0
0
0
0
0
0
0
0
0
0
0
0
0
0
0
0
0
0
0
0
0
0
0
0
0
0
0
0
0
0
0
0
0
0
0
0
0
0
0
0
0
0
0
0
0
0
0
0
0
0
0
0
0
0
0
0
0
0
0
0
0
0
0
0
0
0
0
0
0
0
0
0
0
0
0
0
0
0
0
0
0
0
0
0
0
0
0
0
0
0
0
0
0
0
0
0
0
0
0
0
0
0
0
0
0
0
0
0
0
0
0
0
0
0
0
0
0
0
0
0
0
0
0
0
0
0
0
0
0

