# vtk DataFile Version 3.0
Lines and points representing subcelluar element cells 
ASCII

DATASET UNSTRUCTURED_GRID
POINTS 56 float
25.0457 24.992 0
25.0381 25.0096 0
25.031 25.0124 0
25.0149 25.0054 0
25.0075 24.9868 0
25.0153 24.9688 0
25.0218 24.9663 0
25.0384 24.9734 0
24.5796 24.3079 0
24.5775 24.3125 0
24.5612 24.3189 0
24.5429 24.3108 0
24.5361 24.2936 0
24.5382 24.289 0
24.5545 24.2826 0
24.5728 24.2907 0
24.5748 25.7253 0
24.5671 25.7438 0
24.5501 25.7509 0
24.5413 25.7473 0
24.5341 25.73 0
24.5418 25.7115 0
24.5589 25.7044 0
24.5676 25.708 0
25.4462 24.2521 0
25.439 24.2696 0
25.4205 24.2772 0
25.4026 24.2698 0
25.3974 24.2571 0
25.4046 24.2395 0
25.4231 24.2319 0
25.4409 24.2392 0
25.472 25.7444 0
25.464 25.7628 0
25.4463 25.7698 0
25.4395 25.7668 0
25.433 25.7503 0
25.4409 25.732 0
25.459 25.7248 0
25.4653 25.7276 0
24.2024 25.0085 0
24.1953 25.0272 0
24.1789 25.0346 0
24.174 25.0327 0
24.166 25.0149 0
24.173 24.9962 0
24.189 24.989 0
24.1945 24.991 0
25.8844 24.9969 0
25.8769 25.0149 0
25.865 25.0199 0
25.8484 25.013 0
25.8408 24.9945 0
25.8484 24.9761 0
25.8598 24.9714 0
25.8767 24.9784 0

CELLS 56 168
2 0 1
2 1 2
2 2 3
2 3 4
2 4 5
2 5 6
2 6 7
2 7 0
2 8 9
2 9 10
2 10 11
2 11 12
2 12 13
2 13 14
2 14 15
2 15 8
2 16 17
2 17 18
2 18 19
2 19 20
2 20 21
2 21 22
2 22 23
2 23 16
2 24 25
2 25 26
2 26 27
2 27 28
2 28 29
2 29 30
2 30 31
2 31 24
2 32 33
2 33 34
2 34 35
2 35 36
2 36 37
2 37 38
2 38 39
2 39 32
2 40 41
2 41 42
2 42 43
2 43 44
2 44 45
2 45 46
2 46 47
2 47 40
2 48 49
2 49 50
2 50 51
2 51 52
2 52 53
2 53 54
2 54 55
2 55 48
CELL_TYPES 56
3
3
3
3
3
3
3
3
3
3
3
3
3
3
3
3
3
3
3
3
3
3
3
3
3
3
3
3
3
3
3
3
3
3
3
3
3
3
3
3
3
3
3
3
3
3
3
3
3
3
3
3
3
3
3
3
POINT_DATA 56
SCALARS relative_tension float
LOOKUP_TABLE default
0
0
0
0
0
0
0
0
0
0
0
0
0
0
0
0
0
0
0
0
0
0
0
0
0
0
0
0
0
0
0
0
0
0
0
0
0
0
0
0
0
0
0
0
0
0
0
0
0
0
0
0
0
0
0
0

