# vtk DataFile Version 3.0
Lines and points representing subcelluar element cells 
ASCII

DATASET UNSTRUCTURED_GRID
POINTS 140 float
25.0939 25.0008 0
25.089 25.0312 0
25.075 25.0587 0
25.0532 25.0806 0
25.0257 25.0946 0
24.9952 25.0994 0
24.9647 25.0946 0
24.9372 25.0806 0
24.9154 25.0587 0
24.9014 25.0312 0
24.8966 25.0008 0
24.9014 24.9703 0
24.9154 24.9428 0
24.9372 24.921 0
24.9647 24.907 0
24.9952 24.9021 0
25.0257 24.907 0
25.0532 24.921 0
25.075 24.9428 0
25.089 24.9703 0
24.6746 24.2643 0
24.6698 24.2948 0
24.6557 24.3223 0
24.6339 24.3441 0
24.6064 24.3581 0
24.5759 24.3629 0
24.5454 24.3581 0
24.518 24.344 0
24.4961 24.3222 0
24.4822 24.2947 0
24.4773 24.2642 0
24.4822 24.2337 0
24.4962 24.2063 0
24.518 24.1845 0
24.5456 24.1705 0
24.576 24.1656 0
24.6065 24.1705 0
24.634 24.1845 0
24.6558 24.2064 0
24.6698 24.2339 0
24.6812 25.7375 0
24.6764 25.768 0
24.6623 25.7954 0
24.6405 25.8173 0
24.613 25.8313 0
24.5825 25.8361 0
24.5521 25.8313 0
24.5246 25.8172 0
24.5028 25.7954 0
24.4888 25.7679 0
24.4839 25.7374 0
24.4888 25.707 0
24.5028 25.6795 0
24.5246 25.6576 0
24.5521 25.6436 0
24.5826 25.6388 0
24.6131 25.6437 0
24.6406 25.6577 0
24.6624 25.6795 0
24.6764 25.707 0
25.5281 24.2773 0
25.5233 24.3077 0
25.5093 24.3352 0
25.4874 24.3571 0
25.4599 24.3711 0
25.4295 24.3759 0
25.399 24.3711 0
25.3715 24.3571 0
25.3497 24.3352 0
25.3357 24.3077 0
25.3308 24.2773 0
25.3357 24.2468 0
25.3497 24.2193 0
25.3715 24.1975 0
25.399 24.1835 0
25.4295 24.1786 0
25.4599 24.1835 0
25.4874 24.1975 0
25.5093 24.2193 0
25.5233 24.2468 0
25.5199 25.7322 0
25.515 25.7627 0
25.501 25.7902 0
25.4791 25.812 0
25.4516 25.826 0
25.4212 25.8308 0
25.3907 25.8259 0
25.3632 25.8119 0
25.3414 25.7901 0
25.3274 25.7626 0
25.3226 25.7321 0
25.3274 25.7016 0
25.3415 25.6741 0
25.3633 25.6523 0
25.3908 25.6383 0
25.4213 25.6335 0
25.4518 25.6383 0
25.4792 25.6524 0
25.5011 25.6742 0
25.515 25.7017 0
24.2481 24.9999 0
24.2432 25.0304 0
24.2292 25.0579 0
24.2074 25.0797 0
24.1799 25.0937 0
24.1494 25.0986 0
24.119 25.0937 0
24.0915 25.0797 0
24.0696 25.0579 0
24.0556 25.0304 0
24.0508 24.9999 0
24.0556 24.9695 0
24.0696 24.942 0
24.0915 24.9201 0
24.119 24.9061 0
24.1494 24.9013 0
24.1799 24.9061 0
24.2074 24.9201 0
24.2292 24.942 0
24.2432 24.9695 0
25.9368 25.0033 0
25.932 25.0337 0
25.918 25.0612 0
25.8962 25.0831 0
25.8687 25.0971 0
25.8382 25.1019 0
25.8077 25.0971 0
25.7802 25.0831 0
25.7584 25.0613 0
25.7444 25.0338 0
25.7395 25.0033 0
25.7444 24.9728 0
25.7584 24.9453 0
25.7802 24.9235 0
25.8077 24.9095 0
25.8382 24.9046 0
25.8686 24.9095 0
25.8961 24.9235 0
25.918 24.9453 0
25.932 24.9728 0

CELLS 140 420
2 0 1
2 1 2
2 2 3
2 3 4
2 4 5
2 5 6
2 6 7
2 7 8
2 8 9
2 9 10
2 10 11
2 11 12
2 12 13
2 13 14
2 14 15
2 15 16
2 16 17
2 17 18
2 18 19
2 19 0
2 20 21
2 21 22
2 22 23
2 23 24
2 24 25
2 25 26
2 26 27
2 27 28
2 28 29
2 29 30
2 30 31
2 31 32
2 32 33
2 33 34
2 34 35
2 35 36
2 36 37
2 37 38
2 38 39
2 39 20
2 40 41
2 41 42
2 42 43
2 43 44
2 44 45
2 45 46
2 46 47
2 47 48
2 48 49
2 49 50
2 50 51
2 51 52
2 52 53
2 53 54
2 54 55
2 55 56
2 56 57
2 57 58
2 58 59
2 59 40
2 60 61
2 61 62
2 62 63
2 63 64
2 64 65
2 65 66
2 66 67
2 67 68
2 68 69
2 69 70
2 70 71
2 71 72
2 72 73
2 73 74
2 74 75
2 75 76
2 76 77
2 77 78
2 78 79
2 79 60
2 80 81
2 81 82
2 82 83
2 83 84
2 84 85
2 85 86
2 86 87
2 87 88
2 88 89
2 89 90
2 90 91
2 91 92
2 92 93
2 93 94
2 94 95
2 95 96
2 96 97
2 97 98
2 98 99
2 99 80
2 100 101
2 101 102
2 102 103
2 103 104
2 104 105
2 105 106
2 106 107
2 107 108
2 108 109
2 109 110
2 110 111
2 111 112
2 112 113
2 113 114
2 114 115
2 115 116
2 116 117
2 117 118
2 118 119
2 119 100
2 120 121
2 121 122
2 122 123
2 123 124
2 124 125
2 125 126
2 126 127
2 127 128
2 128 129
2 129 130
2 130 131
2 131 132
2 132 133
2 133 134
2 134 135
2 135 136
2 136 137
2 137 138
2 138 139
2 139 120
CELL_TYPES 140
3
3
3
3
3
3
3
3
3
3
3
3
3
3
3
3
3
3
3
3
3
3
3
3
3
3
3
3
3
3
3
3
3
3
3
3
3
3
3
3
3
3
3
3
3
3
3
3
3
3
3
3
3
3
3
3
3
3
3
3
3
3
3
3
3
3
3
3
3
3
3
3
3
3
3
3
3
3
3
3
3
3
3
3
3
3
3
3
3
3
3
3
3
3
3
3
3
3
3
3
3
3
3
3
3
3
3
3
3
3
3
3
3
3
3
3
3
3
3
3
3
3
3
3
3
3
3
3
3
3
3
3
3
3
3
3
3
3
3
3
POINT_DATA 140
SCALARS relative_tension float
LOOKUP_TABLE default
0
0
0
0
0
0
0
0
0
0
0
0
0
0
0
0
0
0
0
0
0
0
0
0
0
0
0
0
0
0
0
0
0
0
0
0
0
0
0
0
0
0
0
0
0
0
0
0
0
0
0
0
0
0
0
0
0
0
0
0
0
0
0
0
0
0
0
0
0
0
0
0
0
0
0
0
0
0
0
0
0
0
0
0
0
0
0
0
0
0
0
0
0
0
0
0
0
0
0
0
0
0
0
0
0
0
0
0
0
0
0
0
0
0
0
0
0
0
0
0
0
0
0
0
0
0
0
0
0
0
0
0
0
0
0
0
0
0
0
0

