# vtk DataFile Version 3.0
Lines and points representing subcelluar element cells 
ASCII

DATASET UNSTRUCTURED_GRID
POINTS 83 float
24.9973 25.0002 0
24.9942 25.0098 0
24.9796 25.0204 0
24.9637 25.0205 0
24.9538 25.0133 0
24.9496 25.0004 0
24.9537 24.9875 0
24.9636 24.9804 0
24.9797 24.9803 0
24.9942 24.9908 0
24.5973 24.2622 0
24.5913 24.2812 0
24.5752 24.2931 0
24.5692 24.2932 0
24.5627 24.2886 0
24.5564 24.2696 0
24.5624 24.2505 0
24.5785 24.2386 0
24.5845 24.2386 0
24.591 24.2432 0
24.6117 25.7434 0
24.6072 25.7575 0
24.5981 25.7642 0
24.5861 25.7643 0
24.5698 25.7526 0
24.5636 25.7336 0
24.5689 25.717 0
24.5745 25.7128 0
24.5892 25.7128 0
24.6055 25.7244 0
25.4681 24.2626 0
25.4623 24.2803 0
25.4501 24.2892 0
25.4359 24.2892 0
25.4227 24.2796 0
25.4169 24.2616 0
25.4228 24.2432 0
25.4354 24.234 0
25.4485 24.234 0
25.462 24.2438 0
25.4529 25.7082 0
25.4479 25.7231 0
25.4329 25.7339 0
25.4195 25.7338 0
25.412 25.7284 0
25.4071 25.713 0
25.4124 25.6971 0
25.4235 25.6891 0
25.4383 25.6892 0
25.4494 25.6974 0
24.1951 24.9837 0
24.1929 24.9904 0
24.1835 24.9973 0
24.165 24.9973 0
24.1524 24.9882 0
24.1502 24.9814 0
24.1523 24.9748 0
24.1616 24.968 0
24.1803 24.968 0
24.1929 24.9771 0
25.8236 24.9894 0
25.8212 24.9995 0
25.8158 25.004 0
25.8085 25.0046 0
25.7984 24.9983 0
25.7924 24.9836 0
25.7946 24.9746 0
25.8011 24.9691 0
25.8096 24.9685 0
25.817 24.9731 0
25.2394 25.2084 0
25.2312 24.7823 0
25.0813 24.1791 0
25.175 24.5238 0
25.5186 26.0371 0
25.1277 25.8646 0
23.9123 24.7608 0
23.8891 25.1641 0
24.262 24.6362 0
24.2256 25.3337 0
25.9017 24.6352 0
26.1528 24.8937 0
26.2584 25.2261 0

CELLS 78 234
2 70 71
2 72 73
2 74 75
2 76 77
2 76 78
2 79 77
2 80 81
2 82 81
2 0 1
2 1 2
2 2 3
2 3 4
2 4 5
2 5 6
2 6 7
2 7 8
2 8 9
2 9 0
2 10 11
2 11 12
2 12 13
2 13 14
2 14 15
2 15 16
2 16 17
2 17 18
2 18 19
2 19 10
2 20 21
2 21 22
2 22 23
2 23 24
2 24 25
2 25 26
2 26 27
2 27 28
2 28 29
2 29 20
2 30 31
2 31 32
2 32 33
2 33 34
2 34 35
2 35 36
2 36 37
2 37 38
2 38 39
2 39 30
2 40 41
2 41 42
2 42 43
2 43 44
2 44 45
2 45 46
2 46 47
2 47 48
2 48 49
2 49 40
2 50 51
2 51 52
2 52 53
2 53 54
2 54 55
2 55 56
2 56 57
2 57 58
2 58 59
2 59 50
2 60 61
2 61 62
2 62 63
2 63 64
2 64 65
2 65 66
2 66 67
2 67 68
2 68 69
2 69 60
CELL_TYPES 78
3
3
3
3
3
3
3
3
3
3
3
3
3
3
3
3
3
3
3
3
3
3
3
3
3
3
3
3
3
3
3
3
3
3
3
3
3
3
3
3
3
3
3
3
3
3
3
3
3
3
3
3
3
3
3
3
3
3
3
3
3
3
3
3
3
3
3
3
3
3
3
3
3
3
3
3
3
3
POINT_DATA 83
SCALARS relative_tension float
LOOKUP_TABLE default
0
0
0
0
0
0
0
0
0
0
0
0
0
0
0
0
0
0
0
0
0
0
0
0
0
0
0
0
0
0
0
0
0
0
0
0
0
0
0
0
0
0
0
0
0
0
0
0
0
0
0
0
0
0
0
0
0
0
0
0
0
0
0
0
0
0
0
0
0
0
0
0
0
0
0
0
0
0
0
0
0
0
0

