# vtk DataFile Version 3.0
Lines and points representing subcelluar element cells 
ASCII

DATASET UNSTRUCTURED_GRID
POINTS 70 float
25.0383 25.0022 0
25.0322 25.0213 0
25.0164 25.0329 0
25.0002 25.0329 0
24.9869 25.0233 0
24.9806 25.0043 0
24.9867 24.9852 0
25.0028 24.9734 0
25.018 24.9733 0
25.032 24.9833 0
24.5981 24.2616 0
24.592 24.2806 0
24.5759 24.2925 0
24.5594 24.2926 0
24.5447 24.2819 0
24.5384 24.263 0
24.5445 24.2439 0
24.5604 24.2323 0
24.5777 24.2323 0
24.5919 24.2426 0
24.616 25.7254 0
24.6119 25.7388 0
24.6019 25.7463 0
24.5819 25.7467 0
24.5655 25.7352 0
24.5589 25.7163 0
24.5626 25.7042 0
24.5736 25.6959 0
24.5932 25.6955 0
24.6096 25.707 0
25.4555 24.2468 0
25.4513 24.2594 0
25.4351 24.2711 0
25.4151 24.271 0
25.3989 24.2592 0
25.3948 24.2463 0
25.3993 24.2325 0
25.4152 24.2211 0
25.4352 24.2212 0
25.451 24.2328 0
25.4513 25.7336 0
25.4451 25.7526 0
25.4289 25.7643 0
25.4107 25.7643 0
25.3961 25.7537 0
25.3901 25.7349 0
25.3963 25.7159 0
25.4125 25.7042 0
25.4312 25.7043 0
25.4452 25.7146 0
24.1679 24.9955 0
24.1616 25.0145 0
24.1453 25.0261 0
24.1288 25.026 0
24.1162 25.0168 0
24.1104 24.9982 0
24.1167 24.9793 0
24.133 24.9677 0
24.1503 24.9678 0
24.162 24.9765 0
25.8701 24.9822 0
25.864 25.0012 0
25.8479 25.0131 0
25.8279 25.0132 0
25.8168 25.0053 0
25.8119 24.9906 0
25.8179 24.9718 0
25.834 24.96 0
25.8535 24.9599 0
25.8656 24.9686 0

CELLS 70 210
2 0 1
2 1 2
2 2 3
2 3 4
2 4 5
2 5 6
2 6 7
2 7 8
2 8 9
2 9 0
2 10 11
2 11 12
2 12 13
2 13 14
2 14 15
2 15 16
2 16 17
2 17 18
2 18 19
2 19 10
2 20 21
2 21 22
2 22 23
2 23 24
2 24 25
2 25 26
2 26 27
2 27 28
2 28 29
2 29 20
2 30 31
2 31 32
2 32 33
2 33 34
2 34 35
2 35 36
2 36 37
2 37 38
2 38 39
2 39 30
2 40 41
2 41 42
2 42 43
2 43 44
2 44 45
2 45 46
2 46 47
2 47 48
2 48 49
2 49 40
2 50 51
2 51 52
2 52 53
2 53 54
2 54 55
2 55 56
2 56 57
2 57 58
2 58 59
2 59 50
2 60 61
2 61 62
2 62 63
2 63 64
2 64 65
2 65 66
2 66 67
2 67 68
2 68 69
2 69 60
CELL_TYPES 70
3
3
3
3
3
3
3
3
3
3
3
3
3
3
3
3
3
3
3
3
3
3
3
3
3
3
3
3
3
3
3
3
3
3
3
3
3
3
3
3
3
3
3
3
3
3
3
3
3
3
3
3
3
3
3
3
3
3
3
3
3
3
3
3
3
3
3
3
3
3
POINT_DATA 70
SCALARS relative_tension float
LOOKUP_TABLE default
0
0
0
0
0
0
0
0
0
0
0
0
0
0
0
0
0
0
0
0
0
0
0
0
0
0
0
0
0
0
0
0
0
0
0
0
0
0
0
0
0
0
0
0
0
0
0
0
0
0
0
0
0
0
0
0
0
0
0
0
0
0
0
0
0
0
0
0
0
0

