# vtk DataFile Version 3.0
Lines and points representing subcelluar element cells 
ASCII

DATASET UNSTRUCTURED_GRID
POINTS 83 float
25.0024 25.0001 0
24.9992 25.0102 0
24.984 25.0213 0
24.9669 25.0214 0
24.9563 25.0137 0
24.9519 25.0003 0
24.9562 24.9871 0
24.9668 24.9793 0
24.9841 24.9793 0
24.9992 24.9902 0
24.598 24.2622 0
24.5919 24.2813 0
24.5759 24.2932 0
24.5691 24.2933 0
24.5621 24.2883 0
24.5558 24.2693 0
24.5618 24.2502 0
24.5779 24.2383 0
24.5847 24.2383 0
24.5916 24.2433 0
24.6118 25.7424 0
24.6071 25.757 0
24.5975 25.7641 0
24.585 25.7641 0
24.5687 25.7524 0
24.5625 25.7334 0
24.5679 25.7164 0
24.5742 25.7118 0
24.5893 25.7118 0
24.6055 25.7234 0
25.467 24.2629 0
25.4612 24.2808 0
25.4483 24.2901 0
25.4335 24.29 0
25.42 24.2803 0
25.4142 24.2622 0
25.4202 24.2436 0
25.4334 24.2341 0
25.4472 24.2341 0
25.4609 24.2441 0
25.4525 25.7114 0
25.4472 25.7274 0
25.4316 25.7386 0
25.4174 25.7386 0
25.4096 25.7328 0
25.4044 25.7168 0
25.41 25.6998 0
25.4221 25.6912 0
25.4374 25.6913 0
25.4488 25.6997 0
24.1937 24.984 0
24.1915 24.9904 0
24.1807 24.9983 0
24.1618 24.9984 0
24.148 24.9884 0
24.1457 24.9811 0
24.1476 24.975 0
24.1583 24.9672 0
24.1775 24.9672 0
24.1914 24.9773 0
25.8252 24.9882 0
25.8222 25 0
25.8169 25.0044 0
25.8097 25.0049 0
25.7992 24.9982 0
25.7933 24.9834 0
25.7958 24.9737 0
25.8029 24.9678 0
25.8115 24.9672 0
25.8186 24.9717 0
25.2209 25.2238 0
25.2121 24.7676 0
25.0906 24.1746 0
25.1844 24.5236 0
25.5402 26.026 0
25.121 25.8415 0
23.9175 24.7531 0
23.8943 25.1695 0
24.2702 24.646 0
24.2369 25.3252 0
25.8925 24.642 0
26.1431 24.9032 0
26.2585 25.2268 0

CELLS 78 234
2 70 71
2 72 73
2 74 75
2 76 77
2 76 78
2 79 77
2 80 81
2 82 81
2 0 1
2 1 2
2 2 3
2 3 4
2 4 5
2 5 6
2 6 7
2 7 8
2 8 9
2 9 0
2 10 11
2 11 12
2 12 13
2 13 14
2 14 15
2 15 16
2 16 17
2 17 18
2 18 19
2 19 10
2 20 21
2 21 22
2 22 23
2 23 24
2 24 25
2 25 26
2 26 27
2 27 28
2 28 29
2 29 20
2 30 31
2 31 32
2 32 33
2 33 34
2 34 35
2 35 36
2 36 37
2 37 38
2 38 39
2 39 30
2 40 41
2 41 42
2 42 43
2 43 44
2 44 45
2 45 46
2 46 47
2 47 48
2 48 49
2 49 40
2 50 51
2 51 52
2 52 53
2 53 54
2 54 55
2 55 56
2 56 57
2 57 58
2 58 59
2 59 50
2 60 61
2 61 62
2 62 63
2 63 64
2 64 65
2 65 66
2 66 67
2 67 68
2 68 69
2 69 60
CELL_TYPES 78
3
3
3
3
3
3
3
3
3
3
3
3
3
3
3
3
3
3
3
3
3
3
3
3
3
3
3
3
3
3
3
3
3
3
3
3
3
3
3
3
3
3
3
3
3
3
3
3
3
3
3
3
3
3
3
3
3
3
3
3
3
3
3
3
3
3
3
3
3
3
3
3
3
3
3
3
3
3
POINT_DATA 83
SCALARS relative_tension float
LOOKUP_TABLE default
0
0
0
0
0
0
0
0
0
0
0
0
0
0
0
0
0
0
0
0
0
0
0
0
0
0
0
0
0
0
0
0
0
0
0
0
0
0
0
0
0
0
0
0
0
0
0
0
0
0
0
0
0
0
0
0
0
0
0
0
0
0
0
0
0
0
0
0
0
0
0
0
0
0
0
0
0
0
0
0
0
0
0

