# vtk DataFile Version 3.0
Lines and points representing subcelluar element cells 
ASCII

DATASET UNSTRUCTURED_GRID
POINTS 56 float
25.4 25 0
25.2828 25.2828 0
25 25.4 0
24.7172 25.2828 0
24.6 25 0
24.7172 24.7172 0
25 24.6 0
25.2828 24.7172 0
24.9749 24.2641 0
24.8577 24.5469 0
24.5749 24.6641 0
24.2921 24.5469 0
24.1749 24.2641 0
24.2921 23.9812 0
24.5749 23.8641 0
24.8577 23.9812 0
24.975 25.736 0
24.8578 26.0188 0
24.575 26.136 0
24.2922 26.0188 0
24.175 25.736 0
24.2922 25.4532 0
24.575 25.336 0
24.8578 25.4532 0
25.8251 24.2641 0
25.7079 24.5469 0
25.4251 24.6641 0
25.1423 24.5469 0
25.0251 24.2641 0
25.1423 23.9812 0
25.4251 23.8641 0
25.7079 23.9812 0
25.825 25.736 0
25.7078 26.0188 0
25.425 26.136 0
25.1422 26.0188 0
25.025 25.736 0
25.1422 25.4532 0
25.425 25.336 0
25.7078 25.4532 0
24.5499 25 0
24.4327 25.2828 0
24.1499 25.4 0
23.8671 25.2828 0
23.7499 25 0
23.8671 24.7172 0
24.1499 24.6 0
24.4327 24.7172 0
26.25 25.0001 0
26.1328 25.2829 0
25.85 25.4001 0
25.5672 25.2829 0
25.45 25.0001 0
25.5672 24.7172 0
25.85 24.6001 0
26.1328 24.7172 0

CELLS 56 168
2 0 1
2 1 2
2 2 3
2 3 4
2 4 5
2 5 6
2 6 7
2 7 0
2 8 9
2 9 10
2 10 11
2 11 12
2 12 13
2 13 14
2 14 15
2 15 8
2 16 17
2 17 18
2 18 19
2 19 20
2 20 21
2 21 22
2 22 23
2 23 16
2 24 25
2 25 26
2 26 27
2 27 28
2 28 29
2 29 30
2 30 31
2 31 24
2 32 33
2 33 34
2 34 35
2 35 36
2 36 37
2 37 38
2 38 39
2 39 32
2 40 41
2 41 42
2 42 43
2 43 44
2 44 45
2 45 46
2 46 47
2 47 40
2 48 49
2 49 50
2 50 51
2 51 52
2 52 53
2 53 54
2 54 55
2 55 48
CELL_TYPES 56
3
3
3
3
3
3
3
3
3
3
3
3
3
3
3
3
3
3
3
3
3
3
3
3
3
3
3
3
3
3
3
3
3
3
3
3
3
3
3
3
3
3
3
3
3
3
3
3
3
3
3
3
3
3
3
3
POINT_DATA 56
SCALARS relative_tension float
LOOKUP_TABLE default
0
0
0
0
0
0
0
0
0
0
0
0
0
0
0
0
0
0
0
0
0
0
0
0
0
0
0
0
0
0
0
0
0
0
0
0
0
0
0
0
0
0
0
0
0
0
0
0
0
0
0
0
0
0
0
0

