# vtk DataFile Version 3.0
Lines and points representing subcelluar element cells 
ASCII

DATASET UNSTRUCTURED_GRID
POINTS 197 float
25.0553 24.9686 0
25.0473 25.0018 0
25.0188 25.0254 0
24.9789 25.0257 0
24.9491 25.0007 0
24.9423 24.9653 0
24.9569 24.9349 0
24.9851 24.9185 0
25.017 24.9199 0
25.0433 24.9383 0
24.5705 24.249 0
24.5672 24.257 0
24.5604 24.2621 0
24.552 24.2615 0
24.5451 24.2566 0
24.5431 24.2483 0
24.5456 24.2401 0
24.5529 24.2356 0
24.5613 24.2355 0
24.5677 24.241 0
24.5865 25.7321 0
24.5804 25.751 0
24.5692 25.7592 0
24.5536 25.7591 0
24.5376 25.7473 0
24.5317 25.7282 0
24.538 25.7095 0
24.5507 25.7007 0
24.5646 25.701 0
24.5805 25.713 0
25.419 24.2862 0
25.4168 24.2939 0
25.4067 24.3011 0
25.3987 24.3013 0
25.3924 24.2964 0
25.3896 24.2888 0
25.3924 24.281 0
25.402 24.2738 0
25.41 24.2739 0
25.4168 24.2785 0
25.4957 25.7185 0
25.4933 25.727 0
25.4867 25.7318 0
25.4785 25.7322 0
25.4718 25.7274 0
25.4686 25.7186 0
25.4713 25.7101 0
25.4777 25.7049 0
25.4858 25.7049 0
25.4927 25.7095 0
24.1766 25.0493 0
24.174 25.0564 0
24.1679 25.0612 0
24.1523 25.0612 0
24.1434 25.0549 0
24.1408 25.0469 0
24.1429 25.0399 0
24.1494 25.0351 0
24.1632 25.0348 0
24.174 25.0424 0
25.8684 24.9989 0
25.8658 25.0053 0
25.8602 25.0094 0
25.8467 25.0088 0
25.8309 24.9965 0
25.827 24.9837 0
25.8296 24.9773 0
25.8352 24.9732 0
25.8487 24.9738 0
25.8644 24.986 0
24.6696 25.1072 0
24.995 24.987 0
24.8026 24.6756 0
24.7077 24.8868 0
24.4196 25.2099 0
24.4566 24.8105 0
24.99 25.1913 0
24.9756 25.3402 0
24.7303 25.3546 0
25.0718 24.6727 0
25.2766 24.808 0
25.2218 25.2845 0
25.3145 25.0646 0
25.5649 24.9693 0
25.5028 24.6498 0
25.5374 25.3 0
25.2886 25.5426 0
24.9624 25.6044 0
24.8916 24.4243 0
25.2342 24.4428 0
25.2128 24.3236 0
24.9964 24.1352 0
24.9937 24.4799 0
24.9755 24.7342 0
24.8223 24.2918 0
25.1648 23.9505 0
24.7014 24.4908 0
24.7614 24.0419 0
24.6806 24.7435 0
24.4409 24.5173 0
24.4098 24.8048 0
24.288 24.3352 0
24.0497 24.0558 0
24.2432 23.7748 0
24.0213 24.3755 0
24.3171 24.0772 0
24.5301 23.9653 0
24.5648 23.6974 0
24.8791 23.8022 0
24.1739 24.6502 0
25.0346 25.5409 0
24.9979 25.7771 0
24.8335 25.3879 0
24.7612 25.6392 0
24.8017 25.8332 0
24.5953 25.4553 0
24.0662 25.929 0
24.5081 26.065 0
24.2773 25.6582 0
23.9911 25.6342 0
24.1829 26.2002 0
24.3374 25.9074 0
24.7464 26.0513 0
24.7622 26.332 0
24.4454 26.3394 0
25.0266 26.0575 0
24.5674 25.2077 0
24.3235 25.4076 0
25.9644 23.9184 0
25.6864 23.9046 0
25.6138 23.6568 0
25.5142 24.0513 0
25.8434 24.1787 0
25.6797 24.3493 0
25.3123 23.5769 0
25.2064 24.0312 0
25.3398 23.8352 0
25.8791 24.5613 0
25.5527 24.7924 0
25.2331 24.5617 0
25.5243 24.5343 0
24.9259 24.5465 0
24.8596 24.258 0
25.1292 24.2662 0
25.0469 23.7683 0
24.8913 23.9851 0
24.9122 26.0001 0
25.2198 25.6125 0
25.1656 26.1417 0
24.9625 25.7112 0
25.2362 25.8938 0
25.1916 25.3296 0
25.5503 25.406 0
25.4997 26.0122 0
25.4231 26.2955 0
25.7945 25.6849 0
25.7819 26.0189 0
23.8317 24.6508 0
23.6728 24.9306 0
24.0931 24.7615 0
23.8623 25.1427 0
23.5574 24.6655 0
24.2574 24.5699 0
24.0204 24.4599 0
23.9129 24.9067 0
23.46 25.0667 0
23.6525 25.3121 0
24.4745 24.9929 0
24.5056 24.563 0
24.3365 24.8233 0
24.2337 25.2986 0
23.9948 25.3546 0
23.8596 25.5785 0
24.4732 25.324 0
24.6942 25.1361 0
24.2278 25.6004 0
24.6935 24.7862 0
25.5864 25.6031 0
25.7092 25.3913 0
25.3624 25.3667 0
25.9239 25.504 0
25.7035 25.1807 0
25.4827 25.1344 0
26.1131 24.3804 0
25.7958 24.6946 0
26.1146 24.6231 0
26.3763 24.6485 0
25.8035 24.4351 0
26.0273 24.8132 0
26.0356 25.2232 0
26.432 24.9361 0
26.1845 25.4935 0
26.3428 25.2483 0
26.177 24.9969 0
25.5786 24.8273 0
25.4764 24.5419 0
25.3147 24.9377 0

CELLS 471 1413
2 70 71
2 70 72
2 70 73
2 70 74
2 70 75
2 70 76
2 70 77
2 70 78
2 71 72
2 71 73
2 71 79
2 71 80
2 71 81
2 71 82
2 71 76
2 71 77
2 71 78
2 83 80
2 83 81
2 83 84
2 83 85
2 83 82
2 86 87
2 86 81
2 86 85
2 86 82
2 86 76
2 86 77
2 72 73
2 72 79
2 72 88
2 72 80
2 72 89
2 72 75
2 73 74
2 73 79
2 73 88
2 73 75
2 73 76
2 73 78
2 74 75
2 74 78
2 79 88
2 79 80
2 79 84
2 79 89
2 79 82
2 87 81
2 87 76
2 87 77
2 87 78
2 88 89
2 80 81
2 80 84
2 80 89
2 80 82
2 80 76
2 81 85
2 81 82
2 81 76
2 81 77
2 81 78
2 84 89
2 84 82
2 85 82
2 82 76
2 82 77
2 76 77
2 76 78
2 77 78
2 90 91
2 90 92
2 90 93
2 90 94
2 90 95
2 96 91
2 96 92
2 96 97
2 96 93
2 96 98
2 96 99
2 96 94
2 96 100
2 96 101
2 102 103
2 102 104
2 102 105
2 102 101
2 102 106
2 103 107
2 103 105
2 103 106
2 91 92
2 91 97
2 91 94
2 91 95
2 91 108
2 91 106
2 92 97
2 92 93
2 92 98
2 92 94
2 97 94
2 97 107
2 97 95
2 97 108
2 97 105
2 97 106
2 93 98
2 93 94
2 98 99
2 98 94
2 98 100
2 99 94
2 99 109
2 99 104
2 99 100
2 99 105
2 99 101
2 94 95
2 94 108
2 94 106
2 107 108
2 107 105
2 107 106
2 109 104
2 109 100
2 109 101
2 104 105
2 104 101
2 95 108
2 100 101
2 108 106
2 105 101
2 105 106
2 101 106
2 110 111
2 110 112
2 110 113
2 110 114
2 110 115
2 116 117
2 116 118
2 116 119
2 116 120
2 116 121
2 122 123
2 122 124
2 122 117
2 122 111
2 122 125
2 122 121
2 122 113
2 122 114
2 123 124
2 123 117
2 123 125
2 126 127
2 126 112
2 126 113
2 126 115
2 124 117
2 124 120
2 124 121
2 117 118
2 117 120
2 117 121
2 117 113
2 117 114
2 111 125
2 111 112
2 111 113
2 111 114
2 118 119
2 118 127
2 118 121
2 118 113
2 118 115
2 125 113
2 125 114
2 119 127
2 119 121
2 127 121
2 127 113
2 127 115
2 120 121
2 112 113
2 112 114
2 112 115
2 121 114
2 113 114
2 113 115
2 114 115
2 128 129
2 128 130
2 128 131
2 128 132
2 129 130
2 129 133
2 129 131
2 129 134
2 129 132
2 129 135
2 129 136
2 130 131
2 130 134
2 130 136
2 133 131
2 133 137
2 133 132
2 133 138
2 133 139
2 133 140
2 141 142
2 141 139
2 141 143
2 131 132
2 131 140
2 131 143
2 131 135
2 131 136
2 144 145
2 144 134
2 144 135
2 144 136
2 145 142
2 145 143
2 145 135
2 145 136
2 137 132
2 137 138
2 137 140
2 134 135
2 134 136
2 132 140
2 138 139
2 138 140
2 142 139
2 142 143
2 142 135
2 139 140
2 139 143
2 140 143
2 143 135
2 143 136
2 135 136
2 146 147
2 146 148
2 146 149
2 146 150
2 151 147
2 151 152
2 151 149
2 147 152
2 147 149
2 147 153
2 147 150
2 148 149
2 148 154
2 148 153
2 148 150
2 155 156
2 155 152
2 155 153
2 156 154
2 156 153
2 149 150
2 154 153
2 154 150
2 153 150
2 157 158
2 157 159
2 157 160
2 157 161
2 157 162
2 157 163
2 157 164
2 158 159
2 158 160
2 158 161
2 158 165
2 158 166
2 158 164
2 159 160
2 159 167
2 159 168
2 159 162
2 159 163
2 159 169
2 159 164
2 160 170
2 160 165
2 160 171
2 160 166
2 160 172
2 160 164
2 161 165
2 161 164
2 173 170
2 173 167
2 173 171
2 173 174
2 173 175
2 170 167
2 170 171
2 170 174
2 170 175
2 170 172
2 170 169
2 167 168
2 167 174
2 167 162
2 167 176
2 167 169
2 168 162
2 168 163
2 168 176
2 168 169
2 165 166
2 165 164
2 171 175
2 171 166
2 171 172
2 171 164
2 174 176
2 174 169
2 162 163
2 162 176
2 162 169
2 162 164
2 175 172
2 166 172
2 166 164
2 163 169
2 163 164
2 176 169
2 169 164
2 177 178
2 177 179
2 177 180
2 177 181
2 177 182
2 183 184
2 183 185
2 183 186
2 183 187
2 183 188
2 189 178
2 189 190
2 189 191
2 189 180
2 189 192
2 189 193
2 189 188
2 189 181
2 178 179
2 178 191
2 178 180
2 178 181
2 178 182
2 184 185
2 184 187
2 184 194
2 184 195
2 184 193
2 184 188
2 184 181
2 190 185
2 190 186
2 190 192
2 190 193
2 190 188
2 179 181
2 179 196
2 179 182
2 191 180
2 191 192
2 191 193
2 185 186
2 185 187
2 185 193
2 185 188
2 186 193
2 186 188
2 187 194
2 187 195
2 187 188
2 194 195
2 194 188
2 194 181
2 194 196
2 194 182
2 195 196
2 180 192
2 180 181
2 192 193
2 193 188
2 188 181
2 181 196
2 181 182
2 196 182
2 0 1
2 1 2
2 2 3
2 3 4
2 4 5
2 5 6
2 6 7
2 7 8
2 8 9
2 9 0
2 10 11
2 11 12
2 12 13
2 13 14
2 14 15
2 15 16
2 16 17
2 17 18
2 18 19
2 19 10
2 20 21
2 21 22
2 22 23
2 23 24
2 24 25
2 25 26
2 26 27
2 27 28
2 28 29
2 29 20
2 30 31
2 31 32
2 32 33
2 33 34
2 34 35
2 35 36
2 36 37
2 37 38
2 38 39
2 39 30
2 40 41
2 41 42
2 42 43
2 43 44
2 44 45
2 45 46
2 46 47
2 47 48
2 48 49
2 49 40
2 50 51
2 51 52
2 52 53
2 53 54
2 54 55
2 55 56
2 56 57
2 57 58
2 58 59
2 59 50
2 60 61
2 61 62
2 62 63
2 63 64
2 64 65
2 65 66
2 66 67
2 67 68
2 68 69
2 69 60
CELL_TYPES 471
3
3
3
3
3
3
3
3
3
3
3
3
3
3
3
3
3
3
3
3
3
3
3
3
3
3
3
3
3
3
3
3
3
3
3
3
3
3
3
3
3
3
3
3
3
3
3
3
3
3
3
3
3
3
3
3
3
3
3
3
3
3
3
3
3
3
3
3
3
3
3
3
3
3
3
3
3
3
3
3
3
3
3
3
3
3
3
3
3
3
3
3
3
3
3
3
3
3
3
3
3
3
3
3
3
3
3
3
3
3
3
3
3
3
3
3
3
3
3
3
3
3
3
3
3
3
3
3
3
3
3
3
3
3
3
3
3
3
3
3
3
3
3
3
3
3
3
3
3
3
3
3
3
3
3
3
3
3
3
3
3
3
3
3
3
3
3
3
3
3
3
3
3
3
3
3
3
3
3
3
3
3
3
3
3
3
3
3
3
3
3
3
3
3
3
3
3
3
3
3
3
3
3
3
3
3
3
3
3
3
3
3
3
3
3
3
3
3
3
3
3
3
3
3
3
3
3
3
3
3
3
3
3
3
3
3
3
3
3
3
3
3
3
3
3
3
3
3
3
3
3
3
3
3
3
3
3
3
3
3
3
3
3
3
3
3
3
3
3
3
3
3
3
3
3
3
3
3
3
3
3
3
3
3
3
3
3
3
3
3
3
3
3
3
3
3
3
3
3
3
3
3
3
3
3
3
3
3
3
3
3
3
3
3
3
3
3
3
3
3
3
3
3
3
3
3
3
3
3
3
3
3
3
3
3
3
3
3
3
3
3
3
3
3
3
3
3
3
3
3
3
3
3
3
3
3
3
3
3
3
3
3
3
3
3
3
3
3
3
3
3
3
3
3
3
3
3
3
3
3
3
3
3
3
3
3
3
3
3
3
3
3
3
3
3
3
3
3
3
3
3
3
3
3
3
3
3
3
3
3
3
3
3
3
3
3
3
3
3
3
3
3
3
3
3
3
3
3
3
3
3
3
3
3
3
3
3
3
3
3
3
3
3
3
3
3
3
3
3
3
3
3
3
3
3
3
3
3
3
3
3
3
3
3
3
3
3
3
3
3
3
POINT_DATA 197
SCALARS relative_tension float
LOOKUP_TABLE default
0
0
0
0
0
0
0
0
0
0
0
0
0
0
0
0
0
0
0
0
0
0
0
0
0
0
0
0
0
0
0
0
0
0
0
0
0
0
0
0
0
0
0
0
0
0
0
0
0
0
0
0
0
0
0
0
0
0
0
0
0
0
0
0
0
0
0
0
0
0
0
0
0
0
0
0
0
0
0
0
0
0
0
0
0
0
0
0
0
0
0
0
0
0
0
0
0
0
0
0
0
0
0
0
0
0
0
0
0
0
0
0
0
0
0
0
0
0
0
0
0
0
0
0
0
0
0
0
0
0
0
0
0
0
0
0
0
0
0
0
0
0
0
0
0
0
0
0
0
0
0
0
0
0
0
0
0
0
0
0
0
0
0
0
0
0
0
0
0
0
0
0
0
0
0
0
0
0
0
0
0
0
0
0
0
0
0
0
0
0
0
0
0
0
0
0
0

