# vtk DataFile Version 3.0
Lines and points representing subcelluar element cells 
ASCII

DATASET UNSTRUCTURED_GRID
POINTS 70 float
25.4 25 0
25.3236 25.2351 0
25.1236 25.3804 0
24.8764 25.3804 0
24.6764 25.2351 0
24.6 25 0
24.6764 24.7649 0
24.8764 24.6196 0
25.1236 24.6196 0
25.3236 24.7649 0
24.9749 24.2641 0
24.8985 24.4992 0
24.6985 24.6445 0
24.4513 24.6445 0
24.2513 24.4992 0
24.1749 24.2641 0
24.2513 24.0289 0
24.4513 23.8836 0
24.6985 23.8836 0
24.8985 24.0289 0
24.975 25.736 0
24.8986 25.9711 0
24.6986 26.1164 0
24.4514 26.1164 0
24.2514 25.9711 0
24.175 25.736 0
24.2514 25.5009 0
24.4514 25.3556 0
24.6986 25.3556 0
24.8986 25.5009 0
25.8251 24.2641 0
25.7487 24.4992 0
25.5487 24.6445 0
25.3015 24.6445 0
25.1015 24.4992 0
25.0251 24.2641 0
25.1015 24.0289 0
25.3015 23.8836 0
25.5487 23.8836 0
25.7487 24.0289 0
25.825 25.736 0
25.7486 25.9711 0
25.5486 26.1164 0
25.3014 26.1164 0
25.1014 25.9711 0
25.025 25.736 0
25.1014 25.5009 0
25.3014 25.3556 0
25.5486 25.3556 0
25.7486 25.5009 0
24.5499 25 0
24.4735 25.2351 0
24.2735 25.3804 0
24.0263 25.3804 0
23.8263 25.2351 0
23.7499 25 0
23.8263 24.7649 0
24.0263 24.6196 0
24.2735 24.6196 0
24.4735 24.7649 0
26.25 25.0001 0
26.1736 25.2352 0
25.9736 25.3805 0
25.7264 25.3805 0
25.5264 25.2352 0
25.45 25.0001 0
25.5264 24.7649 0
25.7264 24.6196 0
25.9736 24.6196 0
26.1736 24.7649 0

CELLS 70 210
2 0 1
2 1 2
2 2 3
2 3 4
2 4 5
2 5 6
2 6 7
2 7 8
2 8 9
2 9 0
2 10 11
2 11 12
2 12 13
2 13 14
2 14 15
2 15 16
2 16 17
2 17 18
2 18 19
2 19 10
2 20 21
2 21 22
2 22 23
2 23 24
2 24 25
2 25 26
2 26 27
2 27 28
2 28 29
2 29 20
2 30 31
2 31 32
2 32 33
2 33 34
2 34 35
2 35 36
2 36 37
2 37 38
2 38 39
2 39 30
2 40 41
2 41 42
2 42 43
2 43 44
2 44 45
2 45 46
2 46 47
2 47 48
2 48 49
2 49 40
2 50 51
2 51 52
2 52 53
2 53 54
2 54 55
2 55 56
2 56 57
2 57 58
2 58 59
2 59 50
2 60 61
2 61 62
2 62 63
2 63 64
2 64 65
2 65 66
2 66 67
2 67 68
2 68 69
2 69 60
CELL_TYPES 70
3
3
3
3
3
3
3
3
3
3
3
3
3
3
3
3
3
3
3
3
3
3
3
3
3
3
3
3
3
3
3
3
3
3
3
3
3
3
3
3
3
3
3
3
3
3
3
3
3
3
3
3
3
3
3
3
3
3
3
3
3
3
3
3
3
3
3
3
3
3
POINT_DATA 70
SCALARS relative_tension float
LOOKUP_TABLE default
0
0
0
0
0
0
0
0
0
0
0
0
0
0
0
0
0
0
0
0
0
0
0
0
0
0
0
0
0
0
0
0
0
0
0
0
0
0
0
0
0
0
0
0
0
0
0
0
0
0
0
0
0
0
0
0
0
0
0
0
0
0
0
0
0
0
0
0
0
0

