# vtk DataFile Version 3.0
Lines and points representing subcelluar element cells 
ASCII

DATASET UNSTRUCTURED_GRID
POINTS 83 float
25.015 24.9999 0
25.0108 25.0129 0
24.9947 25.0247 0
24.9754 25.0248 0
24.9625 25.0154 0
24.9575 25.0002 0
24.9624 24.9849 0
24.9753 24.9755 0
24.9947 24.9755 0
25.0108 24.9872 0
24.6008 24.2626 0
24.5947 24.2817 0
24.5787 24.2936 0
24.5687 24.2936 0
24.5594 24.287 0
24.5531 24.268 0
24.5592 24.2489 0
24.5753 24.237 0
24.5852 24.237 0
24.5945 24.2436 0
24.6118 25.7389 0
24.6065 25.7553 0
24.5949 25.7638 0
24.5805 25.7638 0
24.5643 25.752 0
24.5581 25.733 0
24.564 25.7147 0
24.573 25.7081 0
24.5894 25.7081 0
24.6056 25.7199 0
25.4637 24.2636 0
25.4576 24.2822 0
25.4431 24.2927 0
25.4259 24.2927 0
25.4116 24.2822 0
25.4057 24.2638 0
25.4119 24.2448 0
25.4267 24.2341 0
25.4429 24.2341 0
25.4576 24.2448 0
25.4528 25.7201 0
25.4467 25.7385 0
25.4305 25.7501 0
25.4132 25.75 0
25.4028 25.7423 0
25.3972 25.725 0
25.4034 25.7064 0
25.4178 25.6961 0
25.4353 25.6961 0
25.4483 25.7057 0
24.1924 24.9855 0
24.1902 24.9925 0
24.1754 25.0033 0
24.1555 25.0034 0
24.1399 24.9922 0
24.1367 24.9825 0
24.1393 24.9743 0
24.153 24.9642 0
24.173 24.9641 0
24.1891 24.9756 0
25.8336 24.9844 0
25.8287 25.0017 0
25.8209 25.0078 0
25.8151 25.008 0
25.8029 24.9998 0
25.797 24.9839 0
25.8007 24.9711 0
25.8106 24.9632 0
25.8207 24.9629 0
25.8273 24.9673 0
25.1754 25.2433 0
25.1658 24.7499 0
25.1228 24.1647 0
25.2115 24.5207 0
25.5761 25.9913 0
25.1182 25.7933 0
23.9385 24.7235 0
23.9204 25.1871 0
24.2669 24.6864 0
24.2451 25.2864 0
25.8706 24.6749 0
26.0933 24.9596 0
26.243 25.1969 0

CELLS 78 234
2 70 71
2 72 73
2 74 75
2 76 77
2 76 78
2 79 77
2 80 81
2 82 81
2 0 1
2 1 2
2 2 3
2 3 4
2 4 5
2 5 6
2 6 7
2 7 8
2 8 9
2 9 0
2 10 11
2 11 12
2 12 13
2 13 14
2 14 15
2 15 16
2 16 17
2 17 18
2 18 19
2 19 10
2 20 21
2 21 22
2 22 23
2 23 24
2 24 25
2 25 26
2 26 27
2 27 28
2 28 29
2 29 20
2 30 31
2 31 32
2 32 33
2 33 34
2 34 35
2 35 36
2 36 37
2 37 38
2 38 39
2 39 30
2 40 41
2 41 42
2 42 43
2 43 44
2 44 45
2 45 46
2 46 47
2 47 48
2 48 49
2 49 40
2 50 51
2 51 52
2 52 53
2 53 54
2 54 55
2 55 56
2 56 57
2 57 58
2 58 59
2 59 50
2 60 61
2 61 62
2 62 63
2 63 64
2 64 65
2 65 66
2 66 67
2 67 68
2 68 69
2 69 60
CELL_TYPES 78
3
3
3
3
3
3
3
3
3
3
3
3
3
3
3
3
3
3
3
3
3
3
3
3
3
3
3
3
3
3
3
3
3
3
3
3
3
3
3
3
3
3
3
3
3
3
3
3
3
3
3
3
3
3
3
3
3
3
3
3
3
3
3
3
3
3
3
3
3
3
3
3
3
3
3
3
3
3
POINT_DATA 83
SCALARS relative_tension float
LOOKUP_TABLE default
0
0
0
0
0
0
0
0
0
0
0
0
0
0
0
0
0
0
0
0
0
0
0
0
0
0
0
0
0
0
0
0
0
0
0
0
0
0
0
0
0
0
0
0
0
0
0
0
0
0
0
0
0
0
0
0
0
0
0
0
0
0
0
0
0
0
0
0
0
0
0
0
0
0
0
0
0
0
0
0
0
0
0

