# vtk DataFile Version 3.0
Lines and points representing subcelluar element cells 
ASCII

DATASET UNSTRUCTURED_GRID
POINTS 197 float
25.0554 24.9839 0
25.0411 25.0269 0
25.0047 25.055 0
24.9577 25.0568 0
24.9182 25.0307 0
24.9001 24.9844 0
24.9171 24.9336 0
24.9589 24.9071 0
25.0065 24.9096 0
25.0433 24.9395 0
24.5751 24.2531 0
24.5718 24.2611 0
24.5651 24.2662 0
24.5568 24.2655 0
24.5499 24.2606 0
24.5478 24.2522 0
24.5504 24.244 0
24.5575 24.2395 0
24.5659 24.2394 0
24.5724 24.2449 0
24.6745 25.718 0
24.6562 25.764 0
24.615 25.7885 0
24.5689 25.7854 0
24.5324 25.7569 0
24.519 25.7118 0
24.5342 25.6676 0
24.5725 25.6391 0
24.6231 25.6393 0
24.6618 25.6708 0
25.4284 24.2778 0
25.424 24.2919 0
25.4078 24.3037 0
25.3952 24.3039 0
25.3898 24.2997 0
25.3874 24.2931 0
25.3922 24.2788 0
25.408 24.2672 0
25.4207 24.2673 0
25.4265 24.2712 0
25.4841 25.724 0
25.4807 25.7349 0
25.4726 25.7409 0
25.463 25.7411 0
25.4568 25.7367 0
25.453 25.7257 0
25.4569 25.7131 0
25.4664 25.7059 0
25.4722 25.7058 0
25.4797 25.7111 0
24.2195 25.0371 0
24.2052 25.0612 0
24.1797 25.0727 0
24.1522 25.0698 0
24.13 25.0536 0
24.1193 25.0281 0
24.1238 25.0003 0
24.1438 24.9795 0
24.1752 24.9797 0
24.2107 25.0072 0
25.8927 25.0165 0
25.8807 25.0495 0
25.8511 25.069 0
25.8154 25.0671 0
25.7876 25.0444 0
25.7787 25.01 0
25.7916 24.9774 0
25.821 24.9588 0
25.8557 24.961 0
25.8831 24.9829 0
24.6831 25.0586 0
24.993 24.962 0
24.7875 24.7196 0
24.9391 24.9706 0
24.5059 25.2056 0
24.5771 24.8385 0
24.9809 25.0052 0
24.9852 25.296 0
24.76 25.3188 0
25.4748 24.9701 0
25.0778 24.6848 0
24.8915 24.5146 0
25.2571 24.8202 0
25.2014 25.2659 0
25.2749 25.0691 0
25.4769 24.6824 0
25.4893 25.2617 0
25.2665 25.5076 0
24.9581 25.5527 0
25.2245 24.4939 0
25.1565 24.3259 0
24.7064 24.477 0
24.9654 24.1391 0
24.9575 24.4695 0
24.75 24.0413 0
24.9154 24.7126 0
24.811 24.281 0
25.126 23.9758 0
24.6641 24.707 0
24.4609 24.4993 0
24.4322 24.7679 0
24.3078 24.3092 0
24.0817 24.092 0
24.2622 23.8111 0
24.0667 24.3851 0
24.3327 24.0709 0
24.5341 23.9797 0
24.5707 23.731 0
24.8649 23.8149 0
24.2136 24.6172 0
24.9859 25.5507 0
24.5873 25.3018 0
24.9205 25.778 0
24.9724 26.015 0
24.7801 25.4312 0
24.5746 25.7213 0
24.6228 25.7277 0
24.6032 25.6802 0
24.1481 25.9099 0
24.4312 26.3039 0
24.5325 26.0513 0
24.2833 25.6434 0
24.0319 25.6792 0
24.227 26.1473 0
24.3646 25.9106 0
24.7417 26.0155 0
24.7194 26.2929 0
24.3675 25.423 0
25.9253 23.9572 0
25.6748 23.9371 0
25.5821 23.721 0
25.6675 24.3477 0
25.4933 24.0344 0
25.7669 24.1699 0
25.3072 23.6265 0
25.2641 24.0624 0
25.3145 23.8597 0
25.8594 24.5182 0
25.5268 24.7306 0
25.2355 24.538 0
25.5154 24.5081 0
24.9629 24.4903 0
24.926 24.0026 0
24.9242 24.2377 0
25.1521 24.2429 0
25.069 23.8123 0
24.9719 26.0034 0
25.2298 25.6194 0
25.2036 26.0553 0
25.0233 25.7361 0
25.3898 26.2616 0
25.2899 25.8829 0
25.2023 25.3698 0
25.5655 25.4354 0
25.496 26.0157 0
25.7728 25.6888 0
25.7294 25.9837 0
23.8574 24.6929 0
23.7228 24.9516 0
24.1633 24.7963 0
23.8906 25.1316 0
23.6091 24.6768 0
23.5257 25.0668 0
24.2337 24.6644 0
24.0332 24.5439 0
24.2161 24.9614 0
23.9217 24.8933 0
23.999 25.3237 0
23.6994 25.2886 0
24.2097 25.2906 0
24.4403 24.9266 0
24.4452 24.6089 0
24.6404 24.8191 0
23.8555 25.5309 0
24.4328 25.2762 0
24.6125 25.1197 0
24.231 25.5535 0
25.6414 25.543 0
25.7314 25.2782 0
25.4092 25.335 0
26.1274 25.4632 0
25.8828 25.4331 0
25.5753 25.1353 0
26.097 24.4888 0
25.7767 24.7075 0
26.0675 24.702 0
26.3082 24.6769 0
25.8269 24.476 0
26.1585 24.9715 0
25.9925 24.8333 0
26.0404 25.2093 0
26.3941 24.9344 0
26.288 25.2007 0
25.835 25.0158 0
25.5876 24.8207 0
25.4054 24.9718 0
25.5141 24.5597 0

CELLS 544 1632
2 70 71
2 70 72
2 70 73
2 70 74
2 70 75
2 70 76
2 70 77
2 70 78
2 71 79
2 71 72
2 71 73
2 71 80
2 71 81
2 71 82
2 71 83
2 71 75
2 71 84
2 71 76
2 71 77
2 71 78
2 79 80
2 79 82
2 79 83
2 79 85
2 79 86
2 79 84
2 79 76
2 87 88
2 87 83
2 87 86
2 87 84
2 87 77
2 72 73
2 72 80
2 72 81
2 72 82
2 72 89
2 72 75
2 72 76
2 73 74
2 73 80
2 73 81
2 73 82
2 73 83
2 73 75
2 73 84
2 73 76
2 73 77
2 73 78
2 74 75
2 74 77
2 74 78
2 80 81
2 80 82
2 80 85
2 80 89
2 80 84
2 80 76
2 88 83
2 88 77
2 88 78
2 81 82
2 81 89
2 81 75
2 81 76
2 82 83
2 82 85
2 82 86
2 82 89
2 82 84
2 82 76
2 83 86
2 83 84
2 83 76
2 83 77
2 83 78
2 85 89
2 85 84
2 86 84
2 75 76
2 84 76
2 84 77
2 76 77
2 76 78
2 77 78
2 90 91
2 90 92
2 90 93
2 90 94
2 90 95
2 90 96
2 90 97
2 91 92
2 91 93
2 91 94
2 91 95
2 91 98
2 91 99
2 91 96
2 91 100
2 91 101
2 102 103
2 102 104
2 102 105
2 102 101
2 102 106
2 103 107
2 103 105
2 103 106
2 92 93
2 92 94
2 92 96
2 92 97
2 92 108
2 92 106
2 93 94
2 93 95
2 93 98
2 93 99
2 93 96
2 94 96
2 94 107
2 94 97
2 94 108
2 94 105
2 94 106
2 95 98
2 95 96
2 95 100
2 98 99
2 98 96
2 98 109
2 98 100
2 99 96
2 99 109
2 99 104
2 99 100
2 99 105
2 99 101
2 96 97
2 96 108
2 96 106
2 107 108
2 107 105
2 107 106
2 109 104
2 109 100
2 109 101
2 104 105
2 104 101
2 97 108
2 100 101
2 108 106
2 105 101
2 105 106
2 101 106
2 110 111
2 110 112
2 110 113
2 110 114
2 110 115
2 110 116
2 110 117
2 118 119
2 118 120
2 118 121
2 118 122
2 118 123
2 118 124
2 118 115
2 125 126
2 125 119
2 125 120
2 125 112
2 125 113
2 125 124
2 125 115
2 125 116
2 125 117
2 126 119
2 126 120
2 126 113
2 111 121
2 111 127
2 111 114
2 111 115
2 111 116
2 111 117
2 119 120
2 119 123
2 119 124
2 120 112
2 120 121
2 120 113
2 120 123
2 120 124
2 120 115
2 120 116
2 120 117
2 112 113
2 112 114
2 112 115
2 112 116
2 112 117
2 121 122
2 121 127
2 121 124
2 121 115
2 121 116
2 121 117
2 113 115
2 113 116
2 113 117
2 122 127
2 122 124
2 127 114
2 127 124
2 127 115
2 127 116
2 127 117
2 123 124
2 114 115
2 114 116
2 114 117
2 124 115
2 124 116
2 124 117
2 115 116
2 115 117
2 116 117
2 128 129
2 128 130
2 128 131
2 128 132
2 128 133
2 129 130
2 129 131
2 129 132
2 129 134
2 129 133
2 129 135
2 129 136
2 130 132
2 130 134
2 130 133
2 130 135
2 130 136
2 131 132
2 131 137
2 131 133
2 131 138
2 131 139
2 131 140
2 131 135
2 141 142
2 141 143
2 141 139
2 141 144
2 132 145
2 132 134
2 132 133
2 132 140
2 132 144
2 132 135
2 132 136
2 145 142
2 145 134
2 145 143
2 145 144
2 145 135
2 145 136
2 142 143
2 142 144
2 142 135
2 142 136
2 137 133
2 137 138
2 137 140
2 134 135
2 134 136
2 133 140
2 138 139
2 138 140
2 143 139
2 143 144
2 143 135
2 139 140
2 139 144
2 139 135
2 140 144
2 144 135
2 144 136
2 135 136
2 146 147
2 146 148
2 146 149
2 146 150
2 146 151
2 152 147
2 152 153
2 152 149
2 147 148
2 147 153
2 147 149
2 147 154
2 147 151
2 148 149
2 148 150
2 148 154
2 148 151
2 155 156
2 155 153
2 155 154
2 156 150
2 156 154
2 156 151
2 149 151
2 150 154
2 150 151
2 154 151
2 157 158
2 157 159
2 157 160
2 157 161
2 157 162
2 157 163
2 157 164
2 157 165
2 157 166
2 158 159
2 158 160
2 158 161
2 158 162
2 158 167
2 158 168
2 158 165
2 158 166
2 159 160
2 159 169
2 159 170
2 159 171
2 159 163
2 159 164
2 159 172
2 159 165
2 159 166
2 160 169
2 160 162
2 160 167
2 160 168
2 160 173
2 160 165
2 160 166
2 161 162
2 161 164
2 161 166
2 174 169
2 174 170
2 174 167
2 174 175
2 174 176
2 174 165
2 169 170
2 169 167
2 169 175
2 169 176
2 169 173
2 169 165
2 169 166
2 170 171
2 170 175
2 170 163
2 170 172
2 170 165
2 171 163
2 171 164
2 171 172
2 171 165
2 162 168
2 162 166
2 167 176
2 167 168
2 167 173
2 167 165
2 167 166
2 175 172
2 175 165
2 163 164
2 163 172
2 163 165
2 163 166
2 176 173
2 168 173
2 168 166
2 164 165
2 164 166
2 172 165
2 165 166
2 177 178
2 177 179
2 177 180
2 177 181
2 177 182
2 183 184
2 183 185
2 183 186
2 183 187
2 183 188
2 183 189
2 190 178
2 190 191
2 190 180
2 190 181
2 190 192
2 190 188
2 190 189
2 190 193
2 190 182
2 178 179
2 178 180
2 178 194
2 178 181
2 178 193
2 178 195
2 178 182
2 184 185
2 184 187
2 184 194
2 184 196
2 184 188
2 184 189
2 184 193
2 184 195
2 184 182
2 191 185
2 191 186
2 191 192
2 191 188
2 191 189
2 179 181
2 179 195
2 179 182
2 180 181
2 180 192
2 180 188
2 185 186
2 185 187
2 185 194
2 185 188
2 185 189
2 185 193
2 186 188
2 186 189
2 187 194
2 187 196
2 187 189
2 194 196
2 194 189
2 194 193
2 194 195
2 194 182
2 196 195
2 181 192
2 181 193
2 181 182
2 192 188
2 192 189
2 192 193
2 188 189
2 188 193
2 189 193
2 193 195
2 193 182
2 195 182
2 0 1
2 1 2
2 2 3
2 3 4
2 4 5
2 5 6
2 6 7
2 7 8
2 8 9
2 9 0
2 10 11
2 11 12
2 12 13
2 13 14
2 14 15
2 15 16
2 16 17
2 17 18
2 18 19
2 19 10
2 20 21
2 21 22
2 22 23
2 23 24
2 24 25
2 25 26
2 26 27
2 27 28
2 28 29
2 29 20
2 30 31
2 31 32
2 32 33
2 33 34
2 34 35
2 35 36
2 36 37
2 37 38
2 38 39
2 39 30
2 40 41
2 41 42
2 42 43
2 43 44
2 44 45
2 45 46
2 46 47
2 47 48
2 48 49
2 49 40
2 50 51
2 51 52
2 52 53
2 53 54
2 54 55
2 55 56
2 56 57
2 57 58
2 58 59
2 59 50
2 60 61
2 61 62
2 62 63
2 63 64
2 64 65
2 65 66
2 66 67
2 67 68
2 68 69
2 69 60
CELL_TYPES 544
3
3
3
3
3
3
3
3
3
3
3
3
3
3
3
3
3
3
3
3
3
3
3
3
3
3
3
3
3
3
3
3
3
3
3
3
3
3
3
3
3
3
3
3
3
3
3
3
3
3
3
3
3
3
3
3
3
3
3
3
3
3
3
3
3
3
3
3
3
3
3
3
3
3
3
3
3
3
3
3
3
3
3
3
3
3
3
3
3
3
3
3
3
3
3
3
3
3
3
3
3
3
3
3
3
3
3
3
3
3
3
3
3
3
3
3
3
3
3
3
3
3
3
3
3
3
3
3
3
3
3
3
3
3
3
3
3
3
3
3
3
3
3
3
3
3
3
3
3
3
3
3
3
3
3
3
3
3
3
3
3
3
3
3
3
3
3
3
3
3
3
3
3
3
3
3
3
3
3
3
3
3
3
3
3
3
3
3
3
3
3
3
3
3
3
3
3
3
3
3
3
3
3
3
3
3
3
3
3
3
3
3
3
3
3
3
3
3
3
3
3
3
3
3
3
3
3
3
3
3
3
3
3
3
3
3
3
3
3
3
3
3
3
3
3
3
3
3
3
3
3
3
3
3
3
3
3
3
3
3
3
3
3
3
3
3
3
3
3
3
3
3
3
3
3
3
3
3
3
3
3
3
3
3
3
3
3
3
3
3
3
3
3
3
3
3
3
3
3
3
3
3
3
3
3
3
3
3
3
3
3
3
3
3
3
3
3
3
3
3
3
3
3
3
3
3
3
3
3
3
3
3
3
3
3
3
3
3
3
3
3
3
3
3
3
3
3
3
3
3
3
3
3
3
3
3
3
3
3
3
3
3
3
3
3
3
3
3
3
3
3
3
3
3
3
3
3
3
3
3
3
3
3
3
3
3
3
3
3
3
3
3
3
3
3
3
3
3
3
3
3
3
3
3
3
3
3
3
3
3
3
3
3
3
3
3
3
3
3
3
3
3
3
3
3
3
3
3
3
3
3
3
3
3
3
3
3
3
3
3
3
3
3
3
3
3
3
3
3
3
3
3
3
3
3
3
3
3
3
3
3
3
3
3
3
3
3
3
3
3
3
3
3
3
3
3
3
3
3
3
3
3
3
3
3
3
3
3
3
3
3
3
3
3
3
3
3
3
3
3
3
3
3
3
3
3
3
3
3
3
3
3
3
3
3
3
3
3
3
3
3
3
3
3
3
3
3
3
3
3
3
3
3
3
3
3
3
3
3
3
3
3
3
3
POINT_DATA 197
SCALARS relative_tension float
LOOKUP_TABLE default
0
0
0
0
0
0
0
0
0
0
0
0
0
0
0
0
0
0
0
0
0
0
0
0
0
0
0
0
0
0
0
0
0
0
0
0
0
0
0
0
0
0
0
0
0
0
0
0
0
0
0
0
0
0
0
0
0
0
0
0
0
0
0
0
0
0
0
0
0
0
0
0
0
0
0
0
0
0
0
0
0
0
0
0
0
0
0
0
0
0
0
0
0
0
0
0
0
0
0
0
0
0
0
0
0
0
0
0
0
0
0
0
0
0
0
0
0
0
0
0
0
0
0
0
0
0
0
0
0
0
0
0
0
0
0
0
0
0
0
0
0
0
0
0
0
0
0
0
0
0
0
0
0
0
0
0
0
0
0
0
0
0
0
0
0
0
0
0
0
0
0
0
0
0
0
0
0
0
0
0
0
0
0
0
0
0
0
0
0
0
0
0
0
0
0
0
0

