# vtk DataFile Version 3.0
Lines and points representing subcelluar element cells 
ASCII

DATASET UNSTRUCTURED_GRID
POINTS 197 float
25.0305 24.929 0
25.0273 24.9359 0
25.0209 24.9399 0
25.0019 24.938 0
24.9886 24.9265 0
24.9871 24.9194 0
24.9899 24.9123 0
24.9966 24.9086 0
25.0156 24.9103 0
25.0287 24.9219 0
24.5601 24.2488 0
24.5565 24.2566 0
24.5502 24.262 0
24.542 24.2608 0
24.5347 24.2562 0
24.5331 24.2476 0
24.5351 24.2393 0
24.5425 24.2354 0
24.5508 24.2347 0
24.5569 24.2406 0
24.5649 25.7383 0
24.5607 25.7512 0
24.5548 25.755 0
24.5478 25.7551 0
24.5382 25.7477 0
24.5335 25.732 0
24.5376 25.7201 0
24.5435 25.7159 0
24.5504 25.7161 0
24.5604 25.7235 0
25.4124 24.2902 0
25.4101 24.2983 0
25.403 24.3032 0
25.3946 24.3034 0
25.3879 24.2983 0
25.3849 24.2901 0
25.3878 24.2821 0
25.3943 24.2769 0
25.4028 24.2772 0
25.41 24.282 0
25.5011 25.7155 0
25.4988 25.7238 0
25.4919 25.7288 0
25.4834 25.7292 0
25.4766 25.7243 0
25.4736 25.7164 0
25.4763 25.7081 0
25.483 25.7028 0
25.4914 25.7028 0
25.4984 25.7074 0
24.173 25.0474 0
24.1704 25.0552 0
24.1637 25.0605 0
24.1533 25.0607 0
24.1465 25.0563 0
24.1441 25.0486 0
24.1462 25.0407 0
24.1532 25.0355 0
24.1634 25.0351 0
24.17 25.0399 0
25.8649 24.993 0
25.862 25.0003 0
25.8557 25.0049 0
25.8477 25.0044 0
25.8331 24.9931 0
25.8311 24.9853 0
25.8335 24.9778 0
25.8402 24.9737 0
25.8481 24.9738 0
25.8625 24.9852 0
24.6362 25.1323 0
24.8679 25.1473 0
24.7718 24.6619 0
24.7055 24.9035 0
24.3873 25.191 0
24.4256 24.8183 0
25.052 25.2595 0
24.9531 25.4631 0
24.6803 25.4064 0
25.2868 25.2981 0
25.302 25.0495 0
25.5929 24.9782 0
25.3007 24.8028 0
25.5106 24.6392 0
25.5704 25.3131 0
25.2917 25.5741 0
24.9667 25.7051 0
25.0736 24.6476 0
24.8974 24.3713 0
25.2482 24.4214 0
25.1816 24.3064 0
24.7112 24.4686 0
24.9592 24.1367 0
24.9429 24.3938 0
24.947 24.6543 0
24.7592 24.2474 0
25.1716 23.9897 0
24.7302 24.037 0
24.6717 24.74 0
24.5104 24.4993 0
24.4026 24.7749 0
24.3488 24.3601 0
24.5091 24.024 0
24.0383 24.0647 0
24.2876 23.8579 0
24.0753 24.3432 0
24.3108 24.1389 0
24.6408 23.7728 0
24.9289 23.8532 0
24.2032 24.589 0
25.0977 25.5081 0
25.0788 25.8024 0
24.8632 25.3018 0
24.8155 25.5915 0
24.8034 25.856 0
24.0325 25.9344 0
24.4897 26.0836 0
24.2652 25.6567 0
23.9793 25.6153 0
24.1672 26.2234 0
24.3142 25.9289 0
24.7475 26.0824 0
24.7831 26.3481 0
24.4543 26.3622 0
25.0562 26.1081 0
24.5723 25.1624 0
24.271 25.3553 0
24.5684 25.4489 0
25.9856 23.8807 0
25.7159 23.9023 0
25.6299 23.6336 0
25.5322 24.0594 0
25.8944 24.1806 0
25.6946 24.3446 0
25.3575 23.8196 0
25.3004 23.5393 0
25.8804 24.582 0
25.57 24.8102 0
25.5199 24.5447 0
24.9094 24.5761 0
24.8359 24.2757 0
25.2202 24.594 0
25.1185 24.2958 0
25.1752 24.0161 0
25.0357 23.7164 0
24.8836 23.9781 0
24.8987 25.9913 0
25.2173 25.6119 0
25.1555 26.1918 0
24.9363 25.679 0
25.2119 25.9086 0
25.1805 25.3147 0
25.5402 25.3957 0
25.4958 26.0066 0
25.4499 26.2989 0
25.8006 25.6906 0
25.7984 26.043 0
23.813 24.6145 0
23.6544 24.9207 0
24.0919 24.7514 0
23.5128 24.6692 0
24.26 24.5317 0
24.018 24.4273 0
23.8943 24.8992 0
23.8531 25.1559 0
23.4383 25.0691 0
23.6365 25.3208 0
24.4687 25.0226 0
24.5334 24.5504 0
24.3579 24.7991 0
24.2583 25.3105 0
24.0007 25.3652 0
23.8592 25.5929 0
24.5145 25.3762 0
24.7181 25.1356 0
24.2266 25.6207 0
24.705 24.7933 0
25.5537 25.6257 0
25.7153 25.4191 0
25.3401 25.3888 0
25.9258 25.5589 0
25.6741 25.195 0
25.4392 25.1426 0
26.1116 24.3424 0
25.8062 24.6651 0
26.1369 24.5952 0
26.4016 24.6344 0
25.7961 24.4116 0
26.0472 24.8012 0
26.0235 25.2426 0
26.2049 25.4974 0
26.3804 25.2537 0
26.1986 25.0098 0
25.5811 24.8331 0
25.4651 24.5439 0
26.4557 24.9236 0
25.2812 24.9174 0

CELLS 449 1347
2 70 71
2 70 72
2 70 73
2 70 74
2 70 75
2 70 76
2 70 77
2 70 78
2 71 72
2 71 73
2 71 74
2 71 79
2 71 80
2 71 76
2 71 77
2 71 78
2 81 82
2 81 79
2 81 83
2 81 84
2 81 80
2 85 86
2 85 79
2 85 84
2 85 76
2 85 77
2 72 73
2 72 87
2 72 88
2 72 75
2 73 74
2 73 87
2 73 75
2 73 76
2 74 75
2 74 78
2 87 88
2 87 82
2 87 83
2 87 89
2 87 80
2 86 76
2 86 77
2 86 78
2 88 89
2 82 79
2 82 83
2 82 89
2 82 80
2 79 84
2 79 80
2 79 76
2 79 77
2 83 89
2 83 80
2 84 80
2 80 76
2 76 77
2 76 78
2 77 78
2 90 91
2 90 92
2 90 93
2 90 94
2 90 95
2 90 96
2 91 92
2 91 93
2 91 97
2 91 94
2 91 98
2 91 99
2 91 95
2 91 100
2 91 101
2 91 102
2 103 104
2 103 105
2 103 106
2 103 101
2 103 102
2 104 97
2 104 107
2 104 106
2 104 102
2 92 93
2 92 97
2 92 95
2 92 107
2 92 96
2 92 108
2 92 102
2 93 97
2 93 94
2 93 98
2 93 99
2 93 95
2 93 96
2 97 95
2 97 107
2 97 96
2 97 108
2 97 106
2 97 101
2 97 102
2 94 98
2 94 99
2 94 95
2 98 99
2 98 109
2 98 100
2 98 101
2 99 95
2 99 109
2 99 105
2 99 100
2 99 106
2 99 101
2 99 102
2 95 107
2 95 96
2 95 108
2 95 106
2 95 101
2 95 102
2 107 108
2 107 106
2 107 102
2 109 105
2 109 100
2 109 106
2 109 101
2 105 106
2 105 101
2 96 108
2 100 101
2 108 102
2 106 101
2 106 102
2 101 102
2 110 111
2 110 112
2 110 113
2 110 114
2 115 116
2 115 117
2 115 118
2 115 119
2 115 120
2 121 122
2 121 123
2 121 116
2 121 111
2 121 124
2 121 120
2 121 113
2 121 114
2 122 123
2 122 116
2 122 124
2 122 114
2 125 126
2 125 112
2 125 113
2 125 127
2 123 116
2 123 119
2 123 120
2 116 117
2 116 119
2 116 120
2 116 114
2 111 124
2 111 113
2 111 114
2 117 118
2 117 126
2 117 120
2 117 127
2 124 114
2 118 126
2 118 120
2 126 127
2 119 120
2 112 113
2 112 127
2 120 114
2 113 114
2 113 127
2 114 127
2 128 129
2 128 130
2 128 131
2 128 132
2 129 130
2 129 133
2 129 131
2 129 132
2 129 134
2 130 131
2 130 135
2 130 134
2 133 131
2 133 136
2 133 132
2 133 137
2 133 138
2 139 140
2 139 141
2 139 142
2 131 132
2 131 138
2 131 142
2 131 143
2 131 134
2 144 145
2 144 135
2 144 143
2 144 134
2 145 140
2 145 142
2 145 143
2 145 134
2 136 132
2 136 137
2 136 138
2 135 143
2 135 134
2 137 141
2 137 138
2 140 141
2 140 142
2 140 143
2 141 138
2 141 142
2 138 142
2 142 143
2 143 134
2 146 147
2 146 148
2 146 149
2 146 150
2 151 147
2 151 152
2 151 149
2 147 152
2 147 149
2 147 153
2 147 150
2 148 154
2 148 153
2 148 150
2 155 156
2 155 152
2 155 153
2 156 154
2 156 153
2 149 150
2 154 153
2 154 150
2 153 150
2 157 158
2 157 159
2 157 160
2 157 161
2 157 162
2 157 163
2 158 159
2 158 164
2 158 160
2 158 165
2 158 166
2 158 163
2 159 164
2 159 167
2 159 168
2 159 161
2 159 162
2 159 169
2 159 163
2 164 170
2 164 165
2 164 171
2 164 166
2 164 172
2 164 163
2 160 165
2 160 163
2 173 170
2 173 167
2 173 174
2 173 175
2 170 167
2 170 171
2 170 174
2 170 175
2 170 172
2 167 168
2 167 174
2 167 176
2 167 169
2 168 161
2 168 176
2 168 169
2 165 166
2 165 163
2 171 175
2 171 166
2 171 172
2 171 163
2 174 176
2 174 169
2 161 162
2 161 169
2 175 172
2 166 172
2 166 163
2 162 163
2 176 169
2 169 163
2 177 178
2 177 179
2 177 180
2 177 181
2 177 182
2 183 184
2 183 185
2 183 186
2 183 187
2 183 188
2 189 178
2 189 190
2 189 180
2 189 191
2 189 192
2 189 188
2 189 181
2 178 179
2 178 190
2 178 180
2 178 181
2 178 182
2 184 185
2 184 187
2 184 193
2 184 194
2 184 188
2 195 185
2 195 186
2 195 191
2 195 192
2 195 188
2 179 181
2 179 196
2 179 182
2 190 180
2 190 191
2 190 192
2 185 186
2 185 187
2 185 192
2 185 188
2 186 192
2 186 188
2 187 193
2 187 194
2 187 188
2 193 194
2 193 188
2 193 181
2 193 196
2 193 182
2 194 196
2 180 181
2 191 192
2 192 188
2 181 196
2 181 182
2 196 182
2 0 1
2 1 2
2 2 3
2 3 4
2 4 5
2 5 6
2 6 7
2 7 8
2 8 9
2 9 0
2 10 11
2 11 12
2 12 13
2 13 14
2 14 15
2 15 16
2 16 17
2 17 18
2 18 19
2 19 10
2 20 21
2 21 22
2 22 23
2 23 24
2 24 25
2 25 26
2 26 27
2 27 28
2 28 29
2 29 20
2 30 31
2 31 32
2 32 33
2 33 34
2 34 35
2 35 36
2 36 37
2 37 38
2 38 39
2 39 30
2 40 41
2 41 42
2 42 43
2 43 44
2 44 45
2 45 46
2 46 47
2 47 48
2 48 49
2 49 40
2 50 51
2 51 52
2 52 53
2 53 54
2 54 55
2 55 56
2 56 57
2 57 58
2 58 59
2 59 50
2 60 61
2 61 62
2 62 63
2 63 64
2 64 65
2 65 66
2 66 67
2 67 68
2 68 69
2 69 60
CELL_TYPES 449
3
3
3
3
3
3
3
3
3
3
3
3
3
3
3
3
3
3
3
3
3
3
3
3
3
3
3
3
3
3
3
3
3
3
3
3
3
3
3
3
3
3
3
3
3
3
3
3
3
3
3
3
3
3
3
3
3
3
3
3
3
3
3
3
3
3
3
3
3
3
3
3
3
3
3
3
3
3
3
3
3
3
3
3
3
3
3
3
3
3
3
3
3
3
3
3
3
3
3
3
3
3
3
3
3
3
3
3
3
3
3
3
3
3
3
3
3
3
3
3
3
3
3
3
3
3
3
3
3
3
3
3
3
3
3
3
3
3
3
3
3
3
3
3
3
3
3
3
3
3
3
3
3
3
3
3
3
3
3
3
3
3
3
3
3
3
3
3
3
3
3
3
3
3
3
3
3
3
3
3
3
3
3
3
3
3
3
3
3
3
3
3
3
3
3
3
3
3
3
3
3
3
3
3
3
3
3
3
3
3
3
3
3
3
3
3
3
3
3
3
3
3
3
3
3
3
3
3
3
3
3
3
3
3
3
3
3
3
3
3
3
3
3
3
3
3
3
3
3
3
3
3
3
3
3
3
3
3
3
3
3
3
3
3
3
3
3
3
3
3
3
3
3
3
3
3
3
3
3
3
3
3
3
3
3
3
3
3
3
3
3
3
3
3
3
3
3
3
3
3
3
3
3
3
3
3
3
3
3
3
3
3
3
3
3
3
3
3
3
3
3
3
3
3
3
3
3
3
3
3
3
3
3
3
3
3
3
3
3
3
3
3
3
3
3
3
3
3
3
3
3
3
3
3
3
3
3
3
3
3
3
3
3
3
3
3
3
3
3
3
3
3
3
3
3
3
3
3
3
3
3
3
3
3
3
3
3
3
3
3
3
3
3
3
3
3
3
3
3
3
3
3
3
3
3
3
3
3
3
3
3
3
3
3
3
3
3
3
3
3
3
3
3
3
3
3
3
3
3
3
3
3
3
3
3
3
3
3
3
3
3
3
3
3
3
3
3
3
3
POINT_DATA 197
SCALARS relative_tension float
LOOKUP_TABLE default
0
0
0
0
0
0
0
0
0
0
0
0
0
0
0
0
0
0
0
0
0
0
0
0
0
0
0
0
0
0
0
0
0
0
0
0
0
0
0
0
0
0
0
0
0
0
0
0
0
0
0
0
0
0
0
0
0
0
0
0
0
0
0
0
0
0
0
0
0
0
0
0
0
0
0
0
0
0
0
0
0
0
0
0
0
0
0
0
0
0
0
0
0
0
0
0
0
0
0
0
0
0
0
0
0
0
0
0
0
0
0
0
0
0
0
0
0
0
0
0
0
0
0
0
0
0
0
0
0
0
0
0
0
0
0
0
0
0
0
0
0
0
0
0
0
0
0
0
0
0
0
0
0
0
0
0
0
0
0
0
0
0
0
0
0
0
0
0
0
0
0
0
0
0
0
0
0
0
0
0
0
0
0
0
0
0
0
0
0
0
0
0
0
0
0
0
0

