# vtk DataFile Version 3.0
Lines and points representing subcelluar element cells 
ASCII

DATASET UNSTRUCTURED_GRID
POINTS 70 float
25.0394 25.0025 0
25.0334 25.0216 0
25.0177 25.033 0
25.0027 25.0331 0
24.9902 25.0241 0
24.984 25.0051 0
24.99 24.9861 0
25.0062 24.9742 0
25.02 24.9741 0
25.0332 24.9836 0
24.5951 24.2609 0
24.589 24.2799 0
24.5728 24.2918 0
24.5577 24.2918 0
24.5437 24.2817 0
24.5374 24.2628 0
24.5435 24.2437 0
24.5592 24.2322 0
24.5753 24.2322 0
24.5888 24.2419 0
24.6168 25.7241 0
24.613 25.7365 0
24.6039 25.7433 0
24.5839 25.7437 0
24.5675 25.7323 0
24.561 25.7134 0
24.5643 25.7024 0
24.5745 25.6947 0
24.594 25.6943 0
24.6104 25.7057 0
25.4552 24.2443 0
25.4513 24.2558 0
25.4351 24.2675 0
25.4151 24.2674 0
25.399 24.2556 0
25.3952 24.2438 0
25.3994 24.231 0
25.4152 24.2197 0
25.4352 24.2197 0
25.451 24.2313 0
25.4487 25.7325 0
25.4425 25.7515 0
25.4263 25.7632 0
25.4089 25.7632 0
25.3952 25.7532 0
25.3892 25.7345 0
25.3955 25.7155 0
25.4117 25.7038 0
25.4296 25.7039 0
25.4426 25.7135 0
24.1648 24.9941 0
24.1584 25.013 0
24.1421 25.0247 0
24.1266 25.0245 0
24.115 25.016 0
24.1092 24.9977 0
24.1156 24.9787 0
24.1318 24.9671 0
24.1483 24.9673 0
24.1588 24.975 0
25.8679 24.9793 0
25.8618 24.9984 0
25.8457 25.0103 0
25.8257 25.0104 0
25.8156 25.0032 0
25.8111 24.9895 0
25.817 24.9707 0
25.8331 24.9589 0
25.8526 24.9588 0
25.8637 24.9668 0

CELLS 70 210
2 0 1
2 1 2
2 2 3
2 3 4
2 4 5
2 5 6
2 6 7
2 7 8
2 8 9
2 9 0
2 10 11
2 11 12
2 12 13
2 13 14
2 14 15
2 15 16
2 16 17
2 17 18
2 18 19
2 19 10
2 20 21
2 21 22
2 22 23
2 23 24
2 24 25
2 25 26
2 26 27
2 27 28
2 28 29
2 29 20
2 30 31
2 31 32
2 32 33
2 33 34
2 34 35
2 35 36
2 36 37
2 37 38
2 38 39
2 39 30
2 40 41
2 41 42
2 42 43
2 43 44
2 44 45
2 45 46
2 46 47
2 47 48
2 48 49
2 49 40
2 50 51
2 51 52
2 52 53
2 53 54
2 54 55
2 55 56
2 56 57
2 57 58
2 58 59
2 59 50
2 60 61
2 61 62
2 62 63
2 63 64
2 64 65
2 65 66
2 66 67
2 67 68
2 68 69
2 69 60
CELL_TYPES 70
3
3
3
3
3
3
3
3
3
3
3
3
3
3
3
3
3
3
3
3
3
3
3
3
3
3
3
3
3
3
3
3
3
3
3
3
3
3
3
3
3
3
3
3
3
3
3
3
3
3
3
3
3
3
3
3
3
3
3
3
3
3
3
3
3
3
3
3
3
3
POINT_DATA 70
SCALARS relative_tension float
LOOKUP_TABLE default
0
0
0
0
0
0
0
0
0
0
0
0
0
0
0
0
0
0
0
0
0
0
0
0
0
0
0
0
0
0
0
0
0
0
0
0
0
0
0
0
0
0
0
0
0
0
0
0
0
0
0
0
0
0
0
0
0
0
0
0
0
0
0
0
0
0
0
0
0
0

