# vtk DataFile Version 3.0
Lines and points representing subcelluar element cells 
ASCII

DATASET UNSTRUCTURED_GRID
POINTS 83 float
24.9927 25.0002 0
24.9897 25.0097 0
24.9758 25.0198 0
24.961 25.0199 0
24.9517 25.0131 0
24.9475 25.0004 0
24.9516 24.9879 0
24.9608 24.9811 0
24.9759 24.9811 0
24.9897 24.9911 0
24.597 24.2622 0
24.591 24.2813 0
24.5753 24.2929 0
24.5689 24.293 0
24.563 24.2887 0
24.5566 24.2698 0
24.5626 24.2507 0
24.5784 24.239 0
24.5847 24.239 0
24.5907 24.2432 0
24.6117 25.7442 0
24.6074 25.7579 0
24.5986 25.7643 0
24.5869 25.7644 0
24.5707 25.7527 0
24.5644 25.7337 0
24.5696 25.7174 0
24.5747 25.7137 0
24.5892 25.7136 0
24.6054 25.7252 0
25.469 24.2624 0
25.4633 24.2799 0
25.4515 24.2885 0
25.4379 24.2885 0
25.4249 24.2791 0
25.419 24.261 0
25.4249 24.2427 0
25.437 24.2339 0
25.4496 24.2339 0
25.4629 24.2436 0
25.4533 25.7056 0
25.4487 25.7195 0
25.4344 25.7297 0
25.4213 25.7297 0
25.414 25.7243 0
25.4093 25.7095 0
25.4142 25.6947 0
25.4247 25.6872 0
25.4391 25.6873 0
25.4501 25.6953 0
24.1967 24.9836 0
24.1945 24.9904 0
24.1861 24.9965 0
24.1682 24.9966 0
24.1567 24.9883 0
24.1545 24.9815 0
24.1566 24.9747 0
24.1649 24.9687 0
24.1831 24.9687 0
24.1945 24.9769 0
25.8224 24.9903 0
25.8204 24.9992 0
25.8148 25.0038 0
25.8075 25.0044 0
25.7977 24.9984 0
25.7917 24.9838 0
25.7937 24.9753 0
25.7998 24.9701 0
25.8081 24.9695 0
25.8158 24.9742 0
25.2557 25.1945 0
25.248 24.7955 0
25.0737 24.1826 0
25.1673 24.5242 0
25.4993 26.0468 0
25.1336 25.8853 0
23.9079 24.7661 0
23.8849 25.1602 0
24.2527 24.6286 0
24.214 25.3401 0
25.91 24.6304 0
26.1599 24.8874 0
26.2578 25.2238 0

CELLS 78 234
2 70 71
2 72 73
2 74 75
2 76 77
2 76 78
2 79 77
2 80 81
2 82 81
2 0 1
2 1 2
2 2 3
2 3 4
2 4 5
2 5 6
2 6 7
2 7 8
2 8 9
2 9 0
2 10 11
2 11 12
2 12 13
2 13 14
2 14 15
2 15 16
2 16 17
2 17 18
2 18 19
2 19 10
2 20 21
2 21 22
2 22 23
2 23 24
2 24 25
2 25 26
2 26 27
2 27 28
2 28 29
2 29 20
2 30 31
2 31 32
2 32 33
2 33 34
2 34 35
2 35 36
2 36 37
2 37 38
2 38 39
2 39 30
2 40 41
2 41 42
2 42 43
2 43 44
2 44 45
2 45 46
2 46 47
2 47 48
2 48 49
2 49 40
2 50 51
2 51 52
2 52 53
2 53 54
2 54 55
2 55 56
2 56 57
2 57 58
2 58 59
2 59 50
2 60 61
2 61 62
2 62 63
2 63 64
2 64 65
2 65 66
2 66 67
2 67 68
2 68 69
2 69 60
CELL_TYPES 78
3
3
3
3
3
3
3
3
3
3
3
3
3
3
3
3
3
3
3
3
3
3
3
3
3
3
3
3
3
3
3
3
3
3
3
3
3
3
3
3
3
3
3
3
3
3
3
3
3
3
3
3
3
3
3
3
3
3
3
3
3
3
3
3
3
3
3
3
3
3
3
3
3
3
3
3
3
3
POINT_DATA 83
SCALARS relative_tension float
LOOKUP_TABLE default
0
0
0
0
0
0
0
0
0
0
0
0
0
0
0
0
0
0
0
0
0
0
0
0
0
0
0
0
0
0
0
0
0
0
0
0
0
0
0
0
0
0
0
0
0
0
0
0
0
0
0
0
0
0
0
0
0
0
0
0
0
0
0
0
0
0
0
0
0
0
0
0
0
0
0
0
0
0
0
0
0
0
0

