# vtk DataFile Version 3.0
Lines and points representing subcelluar element cells 
ASCII

DATASET UNSTRUCTURED_GRID
POINTS 156 float
25.1157 25.0003 0
25.1101 25.0355 0
25.0937 25.0671 0
25.0682 25.0918 0
25.0365 25.1074 0
25.0016 25.1126 0
24.9669 25.1071 0
24.9353 25.0914 0
24.91 25.0667 0
24.8934 25.0353 0
24.8875 25.0002 0
24.8931 24.965 0
24.9095 24.9334 0
24.935 24.9087 0
24.9667 24.893 0
25.0016 24.8879 0
25.0364 24.8934 0
25.0679 24.9091 0
25.0932 24.9338 0
25.1098 24.9652 0
24.6981 24.2792 0
24.6918 24.3175 0
24.6741 24.3519 0
24.6469 24.3793 0
24.6126 24.3972 0
24.5743 24.4036 0
24.5359 24.3975 0
24.5014 24.3796 0
24.4744 24.352 0
24.457 24.3176 0
24.4509 24.2796 0
24.4566 24.2414 0
24.4739 24.2067 0
24.5014 24.1793 0
24.536 24.1618 0
24.5741 24.1559 0
24.6122 24.1619 0
24.6467 24.1791 0
24.6744 24.2062 0
24.6922 24.2408 0
24.702 25.7442 0
24.6962 25.7793 0
24.6797 25.8108 0
24.6543 25.8354 0
24.6227 25.8511 0
24.5879 25.8565 0
24.553 25.8512 0
24.5214 25.8356 0
24.4959 25.8109 0
24.4794 25.7794 0
24.4738 25.7442 0
24.4796 25.7091 0
24.4961 25.6776 0
24.5215 25.653 0
24.5531 25.6373 0
24.5879 25.6319 0
24.6227 25.6371 0
24.6544 25.6528 0
24.6798 25.6775 0
24.6963 25.709 0
25.54 24.2604 0
25.5345 24.2952 0
25.5188 24.3268 0
25.4942 24.3522 0
25.4628 24.3687 0
25.4277 24.3746 0
25.3925 24.369 0
25.3609 24.3526 0
25.3361 24.3272 0
25.3205 24.2955 0
25.3153 24.2606 0
25.3207 24.2258 0
25.3364 24.1943 0
25.3611 24.1689 0
25.3925 24.1523 0
25.4276 24.1464 0
25.4628 24.152 0
25.4944 24.1684 0
25.5191 24.1939 0
25.5348 24.2256 0
25.552 25.7362 0
25.5465 25.7714 0
25.5302 25.8031 0
25.5047 25.8279 0
25.4729 25.8434 0
25.4379 25.8484 0
25.4032 25.8426 0
25.3718 25.8267 0
25.3466 25.8019 0
25.3301 25.7706 0
25.3242 25.7356 0
25.3296 25.7004 0
25.346 25.6687 0
25.3715 25.6439 0
25.4033 25.6283 0
25.4383 25.6233 0
25.473 25.6291 0
25.5044 25.6451 0
25.5296 25.6698 0
25.546 25.7011 0
24.2685 25.0062 0
24.2625 25.041 0
24.2464 25.0723 0
24.2216 25.0974 0
24.1904 25.1138 0
24.1555 25.1198 0
24.1203 25.1147 0
24.0885 25.0986 0
24.0634 25.0733 0
24.0476 25.0414 0
24.0426 25.0063 0
24.0486 24.9716 0
24.0647 24.9402 0
24.0895 24.9152 0
24.1207 24.8988 0
24.1556 24.8927 0
24.1908 24.8979 0
24.2226 24.914 0
24.2477 24.9393 0
24.2634 24.9711 0
25.9608 25.005 0
25.9555 25.0398 0
25.9399 25.0715 0
25.9152 25.0969 0
25.8836 25.1134 0
25.8484 25.119 0
25.8133 25.1132 0
25.7819 25.0967 0
25.7572 25.0713 0
25.7415 25.0397 0
25.7361 25.0049 0
25.7414 24.9701 0
25.757 24.9384 0
25.7817 24.9129 0
25.8132 24.8965 0
25.8484 24.8908 0
25.8836 24.8966 0
25.915 24.9132 0
25.9397 24.9386 0
25.9553 24.9702 0
24.9847 24.9972 0
25.0185 25.0033 0
24.5522 24.2605 0
24.5693 24.3088 0
24.9289 24.426 0
24.6024 24.2694 0
24.605 25.7431 0
24.5708 25.7453 0
25.43 24.2435 0
25.4253 24.2775 0
25.4222 25.7295 0
25.454 25.7422 0
24.1654 24.9922 0
24.1457 25.0203 0
25.8469 24.9879 0
25.85 25.022 0

CELLS 152 456
2 140 141
2 142 143
2 142 144
2 142 145
2 143 144
2 143 145
2 144 145
2 146 147
2 148 149
2 150 151
2 152 153
2 154 155
2 0 1
2 1 2
2 2 3
2 3 4
2 4 5
2 5 6
2 6 7
2 7 8
2 8 9
2 9 10
2 10 11
2 11 12
2 12 13
2 13 14
2 14 15
2 15 16
2 16 17
2 17 18
2 18 19
2 19 0
2 20 21
2 21 22
2 22 23
2 23 24
2 24 25
2 25 26
2 26 27
2 27 28
2 28 29
2 29 30
2 30 31
2 31 32
2 32 33
2 33 34
2 34 35
2 35 36
2 36 37
2 37 38
2 38 39
2 39 20
2 40 41
2 41 42
2 42 43
2 43 44
2 44 45
2 45 46
2 46 47
2 47 48
2 48 49
2 49 50
2 50 51
2 51 52
2 52 53
2 53 54
2 54 55
2 55 56
2 56 57
2 57 58
2 58 59
2 59 40
2 60 61
2 61 62
2 62 63
2 63 64
2 64 65
2 65 66
2 66 67
2 67 68
2 68 69
2 69 70
2 70 71
2 71 72
2 72 73
2 73 74
2 74 75
2 75 76
2 76 77
2 77 78
2 78 79
2 79 60
2 80 81
2 81 82
2 82 83
2 83 84
2 84 85
2 85 86
2 86 87
2 87 88
2 88 89
2 89 90
2 90 91
2 91 92
2 92 93
2 93 94
2 94 95
2 95 96
2 96 97
2 97 98
2 98 99
2 99 80
2 100 101
2 101 102
2 102 103
2 103 104
2 104 105
2 105 106
2 106 107
2 107 108
2 108 109
2 109 110
2 110 111
2 111 112
2 112 113
2 113 114
2 114 115
2 115 116
2 116 117
2 117 118
2 118 119
2 119 100
2 120 121
2 121 122
2 122 123
2 123 124
2 124 125
2 125 126
2 126 127
2 127 128
2 128 129
2 129 130
2 130 131
2 131 132
2 132 133
2 133 134
2 134 135
2 135 136
2 136 137
2 137 138
2 138 139
2 139 120
CELL_TYPES 152
3
3
3
3
3
3
3
3
3
3
3
3
3
3
3
3
3
3
3
3
3
3
3
3
3
3
3
3
3
3
3
3
3
3
3
3
3
3
3
3
3
3
3
3
3
3
3
3
3
3
3
3
3
3
3
3
3
3
3
3
3
3
3
3
3
3
3
3
3
3
3
3
3
3
3
3
3
3
3
3
3
3
3
3
3
3
3
3
3
3
3
3
3
3
3
3
3
3
3
3
3
3
3
3
3
3
3
3
3
3
3
3
3
3
3
3
3
3
3
3
3
3
3
3
3
3
3
3
3
3
3
3
3
3
3
3
3
3
3
3
3
3
3
3
3
3
3
3
3
3
3
3
POINT_DATA 156
SCALARS relative_tension float
LOOKUP_TABLE default
0
0
0
0
0
0
0
0
0
0
0
0
0
0
0
0
0
0
0
0
0
0
0
0
0
0
0
0
0
0
0
0
0
0
0
0
0
0
0
0
0
0
0
0
0
0
0
0
0
0
0
0
0
0
0
0
0
0
0
0
0
0
0
0
0
0
0
0
0
0
0
0
0
0
0
0
0
0
0
0
0
0
0
0
0
0
0
0
0
0
0
0
0
0
0
0
0
0
0
0
0
0
0
0
0
0
0
0
0
0
0
0
0
0
0
0
0
0
0
0
0
0
0
0
0
0
0
0
0
0
0
0
0
0
0
0
0
0
0
0
0
0
0
0
0
0
0
0
0
0
0
0
0
0
0
0

