# vtk DataFile Version 3.0
Lines and points representing subcelluar element cells 
ASCII

DATASET UNSTRUCTURED_GRID
POINTS 175 float
25.4 25 0
25.3236 25.2351 0
25.1236 25.3804 0
24.8764 25.3804 0
24.6764 25.2351 0
24.6 25 0
24.6764 24.7649 0
24.8764 24.6196 0
25.1236 24.6196 0
25.3236 24.7649 0
24.9749 24.2641 0
24.8985 24.4992 0
24.6985 24.6445 0
24.4513 24.6445 0
24.2513 24.4992 0
24.1749 24.2641 0
24.2513 24.0289 0
24.4513 23.8836 0
24.6985 23.8836 0
24.8985 24.0289 0
24.975 25.736 0
24.8986 25.9711 0
24.6986 26.1164 0
24.4514 26.1164 0
24.2514 25.9711 0
24.175 25.736 0
24.2514 25.5009 0
24.4514 25.3556 0
24.6986 25.3556 0
24.8986 25.5009 0
25.8251 24.2641 0
25.7487 24.4992 0
25.5487 24.6445 0
25.3015 24.6445 0
25.1015 24.4992 0
25.0251 24.2641 0
25.1015 24.0289 0
25.3015 23.8836 0
25.5487 23.8836 0
25.7487 24.0289 0
25.825 25.736 0
25.7486 25.9711 0
25.5486 26.1164 0
25.3014 26.1164 0
25.1014 25.9711 0
25.025 25.736 0
25.1014 25.5009 0
25.3014 25.3556 0
25.5486 25.3556 0
25.7486 25.5009 0
24.5499 25 0
24.4735 25.2351 0
24.2735 25.3804 0
24.0263 25.3804 0
23.8263 25.2351 0
23.7499 25 0
23.8263 24.7649 0
24.0263 24.6196 0
24.2735 24.6196 0
24.4735 24.7649 0
26.25 25.0001 0
26.1736 25.2352 0
25.9736 25.3805 0
25.7264 25.3805 0
25.5264 25.2352 0
25.45 25.0001 0
25.5264 24.7649 0
25.7264 24.6196 0
25.9736 24.6196 0
26.1736 24.7649 0
24.9046 25.0156 0
25.0185 24.977 0
25.1474 25.0582 0
25.096 25.2492 0
24.9254 24.9468 0
24.972 24.9994 0
24.771 25.0676 0
25.0714 24.904 0
25.0625 25.2262 0
24.9124 24.7298 0
25.1454 24.8846 0
25.1283 25.131 0
25.1867 24.8154 0
25.19 25.132 0
25.1727 24.7946 0
24.8476 24.8912 0
24.8063 24.2713 0
24.5968 24.3766 0
24.3686 24.1676 0
24.4138 24.0288 0
24.7884 24.2604 0
24.7973 24.303 0
24.6187 24.1762 0
24.6743 24.4457 0
24.6399 24.4446 0
24.533 24.3426 0
24.6508 24.2149 0
24.5411 24.1207 0
24.5023 24.3635 0
24.3816 24.3126 0
24.8462 24.1645 0
24.5401 24.4297 0
24.6815 24.1516 0
24.4795 24.1145 0
24.6747 25.6777 0
24.443 25.8715 0
24.6056 25.9691 0
24.591 26.0247 0
24.5866 25.528 0
24.5145 26.0138 0
24.5236 25.9029 0
24.6523 25.7113 0
24.3823 25.7857 0
24.7166 25.9499 0
24.3393 25.7729 0
24.5629 25.5364 0
24.461 25.892 0
24.664 25.688 0
25.6304 24.0647 0
25.4691 24.1089 0
25.3929 24.0016 0
25.4648 24.2558 0
25.3928 24.1058 0
25.2989 24.0734 0
25.2807 24.084 0
25.5731 24.4076 0
25.3454 23.998 0
25.4246 24.1204 0
25.5334 24.4199 0
25.3142 24.1163 0
25.2482 24.3767 0
25.1596 24.3882 0
25.1749 25.8988 0
25.2294 25.5205 0
25.4119 25.808 0
25.3512 25.8967 0
25.6064 25.7179 0
25.5268 25.8558 0
25.5787 25.6159 0
25.3034 25.8402 0
25.3934 26.0227 0
25.385 25.8935 0
23.9889 24.9607 0
23.9748 24.9838 0
24.123 24.948 0
23.9464 25.023 0
23.9607 24.9009 0
24.2574 25.0978 0
24.1084 25.1543 0
24.1655 24.9303 0
24.3411 24.8174 0
23.8999 25.0717 0
23.9894 25.2037 0
24.4015 25.0179 0
24.1578 24.92 0
24.1545 25.2679 0
23.9273 25.1436 0
24.0785 24.9024 0
23.9773 25.2017 0
24.3003 24.9239 0
25.7747 25.2613 0
25.909 25.0978 0
25.802 25.0817 0
25.7978 24.8432 0
26.049 24.998 0
25.7516 25.1665 0
25.9064 25.2096 0
26.0275 24.8639 0
25.8058 24.9326 0
25.728 24.7807 0
25.8147 25.2371 0
26.0283 25.0308 0
25.9748 24.7323 0
26.0545 24.8061 0
25.9163 24.732 0

CELLS 814 2442
2 70 71
2 70 72
2 70 73
2 70 74
2 70 75
2 70 76
2 70 77
2 70 78
2 70 79
2 70 80
2 70 81
2 70 82
2 70 83
2 70 84
2 70 85
2 71 72
2 71 73
2 71 74
2 71 75
2 71 76
2 71 77
2 71 78
2 71 79
2 71 80
2 71 81
2 71 82
2 71 83
2 71 84
2 71 85
2 72 73
2 72 74
2 72 75
2 72 76
2 72 77
2 72 78
2 72 79
2 72 80
2 72 81
2 72 82
2 72 83
2 72 84
2 72 85
2 73 74
2 73 75
2 73 76
2 73 77
2 73 78
2 73 80
2 73 81
2 73 82
2 73 83
2 73 84
2 73 85
2 74 75
2 74 76
2 74 77
2 74 78
2 74 79
2 74 80
2 74 81
2 74 82
2 74 83
2 74 84
2 74 85
2 75 76
2 75 77
2 75 78
2 75 79
2 75 80
2 75 81
2 75 82
2 75 83
2 75 84
2 75 85
2 76 77
2 76 78
2 76 79
2 76 80
2 76 81
2 76 82
2 76 83
2 76 84
2 76 85
2 77 78
2 77 79
2 77 80
2 77 81
2 77 82
2 77 83
2 77 84
2 77 85
2 78 80
2 78 81
2 78 82
2 78 83
2 78 84
2 78 85
2 79 80
2 79 81
2 79 82
2 79 83
2 79 84
2 79 85
2 80 81
2 80 82
2 80 83
2 80 84
2 80 85
2 81 82
2 81 83
2 81 84
2 81 85
2 82 83
2 82 84
2 82 85
2 83 84
2 83 85
2 84 85
2 86 87
2 86 88
2 86 89
2 86 90
2 86 91
2 86 92
2 86 93
2 86 94
2 86 95
2 86 96
2 86 97
2 86 98
2 86 99
2 86 100
2 86 101
2 86 102
2 86 103
2 87 88
2 87 89
2 87 90
2 87 91
2 87 92
2 87 93
2 87 94
2 87 95
2 87 96
2 87 97
2 87 98
2 87 99
2 87 100
2 87 101
2 87 102
2 87 103
2 88 89
2 88 90
2 88 91
2 88 92
2 88 93
2 88 94
2 88 95
2 88 96
2 88 97
2 88 98
2 88 99
2 88 100
2 88 101
2 88 102
2 88 103
2 89 90
2 89 91
2 89 92
2 89 93
2 89 94
2 89 95
2 89 96
2 89 97
2 89 98
2 89 99
2 89 100
2 89 101
2 89 102
2 89 103
2 90 91
2 90 92
2 90 93
2 90 94
2 90 95
2 90 96
2 90 97
2 90 98
2 90 99
2 90 100
2 90 101
2 90 102
2 90 103
2 91 92
2 91 93
2 91 94
2 91 95
2 91 96
2 91 97
2 91 98
2 91 99
2 91 100
2 91 101
2 91 102
2 91 103
2 92 93
2 92 94
2 92 95
2 92 96
2 92 97
2 92 98
2 92 99
2 92 100
2 92 101
2 92 102
2 92 103
2 93 94
2 93 95
2 93 96
2 93 97
2 93 98
2 93 99
2 93 100
2 93 101
2 93 102
2 93 103
2 94 95
2 94 96
2 94 97
2 94 98
2 94 99
2 94 100
2 94 101
2 94 102
2 94 103
2 95 96
2 95 97
2 95 98
2 95 99
2 95 100
2 95 101
2 95 102
2 95 103
2 96 97
2 96 98
2 96 99
2 96 100
2 96 101
2 96 102
2 96 103
2 97 98
2 97 99
2 97 100
2 97 101
2 97 102
2 97 103
2 98 99
2 98 100
2 98 101
2 98 102
2 98 103
2 99 100
2 99 101
2 99 102
2 99 103
2 100 101
2 100 102
2 100 103
2 101 102
2 101 103
2 102 103
2 104 105
2 104 106
2 104 107
2 104 108
2 104 109
2 104 110
2 104 111
2 104 112
2 104 113
2 104 114
2 104 115
2 104 116
2 104 117
2 105 106
2 105 107
2 105 108
2 105 109
2 105 110
2 105 111
2 105 112
2 105 113
2 105 114
2 105 115
2 105 116
2 105 117
2 106 107
2 106 108
2 106 109
2 106 110
2 106 111
2 106 112
2 106 113
2 106 114
2 106 115
2 106 116
2 106 117
2 107 108
2 107 109
2 107 110
2 107 111
2 107 112
2 107 113
2 107 114
2 107 115
2 107 116
2 107 117
2 108 109
2 108 110
2 108 111
2 108 112
2 108 113
2 108 114
2 108 115
2 108 116
2 108 117
2 109 110
2 109 111
2 109 112
2 109 113
2 109 114
2 109 115
2 109 116
2 109 117
2 110 111
2 110 112
2 110 113
2 110 114
2 110 115
2 110 116
2 110 117
2 111 112
2 111 113
2 111 114
2 111 115
2 111 116
2 111 117
2 112 113
2 112 114
2 112 115
2 112 116
2 112 117
2 113 114
2 113 115
2 113 116
2 113 117
2 114 115
2 114 116
2 114 117
2 115 116
2 115 117
2 116 117
2 118 119
2 118 120
2 118 121
2 118 122
2 118 123
2 118 124
2 118 125
2 118 126
2 118 127
2 118 128
2 118 129
2 118 130
2 119 120
2 119 121
2 119 131
2 119 122
2 119 123
2 119 124
2 119 125
2 119 126
2 119 127
2 119 128
2 119 129
2 119 130
2 120 121
2 120 131
2 120 122
2 120 123
2 120 124
2 120 125
2 120 126
2 120 127
2 120 128
2 120 129
2 120 130
2 121 131
2 121 122
2 121 123
2 121 124
2 121 125
2 121 126
2 121 127
2 121 128
2 121 129
2 121 130
2 131 122
2 131 123
2 131 124
2 131 125
2 131 126
2 131 127
2 131 128
2 131 129
2 131 130
2 122 123
2 122 124
2 122 125
2 122 126
2 122 127
2 122 128
2 122 129
2 122 130
2 123 124
2 123 125
2 123 126
2 123 127
2 123 128
2 123 129
2 123 130
2 124 125
2 124 126
2 124 127
2 124 128
2 124 129
2 124 130
2 125 126
2 125 127
2 125 128
2 125 129
2 125 130
2 126 127
2 126 128
2 126 129
2 126 130
2 127 128
2 127 129
2 127 130
2 128 129
2 128 130
2 129 130
2 132 133
2 132 134
2 132 135
2 132 136
2 132 137
2 132 138
2 132 139
2 132 140
2 132 141
2 133 134
2 133 135
2 133 136
2 133 137
2 133 138
2 133 139
2 133 141
2 134 135
2 134 136
2 134 137
2 134 138
2 134 139
2 134 140
2 134 141
2 135 136
2 135 137
2 135 138
2 135 139
2 135 140
2 135 141
2 136 137
2 136 138
2 136 139
2 136 140
2 136 141
2 137 138
2 137 139
2 137 140
2 137 141
2 138 139
2 138 140
2 138 141
2 139 140
2 139 141
2 140 141
2 142 143
2 142 144
2 142 145
2 142 146
2 142 147
2 142 148
2 142 149
2 142 150
2 142 151
2 142 152
2 142 153
2 142 154
2 142 155
2 142 156
2 142 157
2 142 158
2 142 159
2 143 144
2 143 145
2 143 146
2 143 147
2 143 148
2 143 149
2 143 150
2 143 151
2 143 152
2 143 153
2 143 154
2 143 155
2 143 156
2 143 157
2 143 158
2 143 159
2 144 145
2 144 146
2 144 147
2 144 148
2 144 149
2 144 150
2 144 151
2 144 152
2 144 153
2 144 154
2 144 155
2 144 156
2 144 157
2 144 158
2 144 159
2 145 146
2 145 147
2 145 148
2 145 149
2 145 150
2 145 151
2 145 152
2 145 153
2 145 154
2 145 155
2 145 156
2 145 157
2 145 158
2 145 159
2 146 147
2 146 148
2 146 149
2 146 150
2 146 151
2 146 152
2 146 153
2 146 154
2 146 155
2 146 156
2 146 157
2 146 158
2 146 159
2 147 148
2 147 149
2 147 150
2 147 151
2 147 152
2 147 153
2 147 154
2 147 155
2 147 156
2 147 157
2 147 158
2 147 159
2 148 149
2 148 150
2 148 151
2 148 152
2 148 153
2 148 154
2 148 155
2 148 156
2 148 157
2 148 158
2 148 159
2 149 150
2 149 151
2 149 152
2 149 153
2 149 154
2 149 155
2 149 156
2 149 157
2 149 158
2 149 159
2 150 153
2 150 154
2 150 155
2 150 157
2 150 159
2 151 152
2 151 154
2 151 155
2 151 156
2 151 157
2 151 158
2 151 159
2 152 153
2 152 154
2 152 155
2 152 156
2 152 157
2 152 158
2 152 159
2 153 154
2 153 155
2 153 156
2 153 157
2 153 158
2 153 159
2 154 155
2 154 156
2 154 157
2 154 158
2 154 159
2 155 156
2 155 157
2 155 158
2 155 159
2 156 157
2 156 158
2 156 159
2 157 158
2 157 159
2 158 159
2 160 161
2 160 162
2 160 163
2 160 164
2 160 165
2 160 166
2 160 167
2 160 168
2 160 169
2 160 170
2 160 171
2 172 161
2 172 162
2 172 163
2 172 164
2 172 165
2 172 166
2 172 167
2 172 173
2 172 174
2 172 168
2 172 169
2 172 171
2 161 162
2 161 163
2 161 164
2 161 165
2 161 166
2 161 167
2 161 173
2 161 174
2 161 168
2 161 169
2 161 170
2 161 171
2 162 163
2 162 164
2 162 165
2 162 166
2 162 167
2 162 173
2 162 174
2 162 168
2 162 169
2 162 170
2 162 171
2 163 164
2 163 165
2 163 166
2 163 167
2 163 173
2 163 174
2 163 168
2 163 169
2 163 170
2 163 171
2 164 165
2 164 166
2 164 167
2 164 173
2 164 174
2 164 168
2 164 169
2 164 170
2 164 171
2 165 166
2 165 167
2 165 173
2 165 174
2 165 168
2 165 169
2 165 170
2 165 171
2 166 167
2 166 173
2 166 174
2 166 168
2 166 169
2 166 170
2 166 171
2 167 173
2 167 174
2 167 168
2 167 169
2 167 170
2 167 171
2 173 174
2 173 168
2 173 169
2 173 170
2 173 171
2 174 168
2 174 169
2 174 171
2 168 169
2 168 170
2 168 171
2 169 170
2 169 171
2 170 171
2 0 1
2 1 2
2 2 3
2 3 4
2 4 5
2 5 6
2 6 7
2 7 8
2 8 9
2 9 0
2 10 11
2 11 12
2 12 13
2 13 14
2 14 15
2 15 16
2 16 17
2 17 18
2 18 19
2 19 10
2 20 21
2 21 22
2 22 23
2 23 24
2 24 25
2 25 26
2 26 27
2 27 28
2 28 29
2 29 20
2 30 31
2 31 32
2 32 33
2 33 34
2 34 35
2 35 36
2 36 37
2 37 38
2 38 39
2 39 30
2 40 41
2 41 42
2 42 43
2 43 44
2 44 45
2 45 46
2 46 47
2 47 48
2 48 49
2 49 40
2 50 51
2 51 52
2 52 53
2 53 54
2 54 55
2 55 56
2 56 57
2 57 58
2 58 59
2 59 50
2 60 61
2 61 62
2 62 63
2 63 64
2 64 65
2 65 66
2 66 67
2 67 68
2 68 69
2 69 60
CELL_TYPES 814
3
3
3
3
3
3
3
3
3
3
3
3
3
3
3
3
3
3
3
3
3
3
3
3
3
3
3
3
3
3
3
3
3
3
3
3
3
3
3
3
3
3
3
3
3
3
3
3
3
3
3
3
3
3
3
3
3
3
3
3
3
3
3
3
3
3
3
3
3
3
3
3
3
3
3
3
3
3
3
3
3
3
3
3
3
3
3
3
3
3
3
3
3
3
3
3
3
3
3
3
3
3
3
3
3
3
3
3
3
3
3
3
3
3
3
3
3
3
3
3
3
3
3
3
3
3
3
3
3
3
3
3
3
3
3
3
3
3
3
3
3
3
3
3
3
3
3
3
3
3
3
3
3
3
3
3
3
3
3
3
3
3
3
3
3
3
3
3
3
3
3
3
3
3
3
3
3
3
3
3
3
3
3
3
3
3
3
3
3
3
3
3
3
3
3
3
3
3
3
3
3
3
3
3
3
3
3
3
3
3
3
3
3
3
3
3
3
3
3
3
3
3
3
3
3
3
3
3
3
3
3
3
3
3
3
3
3
3
3
3
3
3
3
3
3
3
3
3
3
3
3
3
3
3
3
3
3
3
3
3
3
3
3
3
3
3
3
3
3
3
3
3
3
3
3
3
3
3
3
3
3
3
3
3
3
3
3
3
3
3
3
3
3
3
3
3
3
3
3
3
3
3
3
3
3
3
3
3
3
3
3
3
3
3
3
3
3
3
3
3
3
3
3
3
3
3
3
3
3
3
3
3
3
3
3
3
3
3
3
3
3
3
3
3
3
3
3
3
3
3
3
3
3
3
3
3
3
3
3
3
3
3
3
3
3
3
3
3
3
3
3
3
3
3
3
3
3
3
3
3
3
3
3
3
3
3
3
3
3
3
3
3
3
3
3
3
3
3
3
3
3
3
3
3
3
3
3
3
3
3
3
3
3
3
3
3
3
3
3
3
3
3
3
3
3
3
3
3
3
3
3
3
3
3
3
3
3
3
3
3
3
3
3
3
3
3
3
3
3
3
3
3
3
3
3
3
3
3
3
3
3
3
3
3
3
3
3
3
3
3
3
3
3
3
3
3
3
3
3
3
3
3
3
3
3
3
3
3
3
3
3
3
3
3
3
3
3
3
3
3
3
3
3
3
3
3
3
3
3
3
3
3
3
3
3
3
3
3
3
3
3
3
3
3
3
3
3
3
3
3
3
3
3
3
3
3
3
3
3
3
3
3
3
3
3
3
3
3
3
3
3
3
3
3
3
3
3
3
3
3
3
3
3
3
3
3
3
3
3
3
3
3
3
3
3
3
3
3
3
3
3
3
3
3
3
3
3
3
3
3
3
3
3
3
3
3
3
3
3
3
3
3
3
3
3
3
3
3
3
3
3
3
3
3
3
3
3
3
3
3
3
3
3
3
3
3
3
3
3
3
3
3
3
3
3
3
3
3
3
3
3
3
3
3
3
3
3
3
3
3
3
3
3
3
3
3
3
3
3
3
3
3
3
3
3
3
3
3
3
3
3
3
3
3
3
3
3
3
3
3
3
3
3
3
3
3
3
3
3
3
3
3
3
3
3
3
3
3
3
3
3
3
3
3
3
3
3
3
3
3
3
3
3
3
3
3
3
3
3
3
3
3
3
3
3
3
3
3
3
3
3
3
3
3
3
3
3
3
3
3
3
3
3
3
3
3
3
3
3
3
3
3
3
3
3
3
3
3
3
3
3
3
3
3
3
3
3
3
3
3
3
3
3
3
3
3
3
3
3
3
3
3
3
3
3
3
3
3
3
3
3
3
3
3
3
3
3
3
3
3
3
3
3
3
3
3
3
3
3
3
3
3
3
3
POINT_DATA 175
SCALARS relative_tension float
LOOKUP_TABLE default
0
0
0
0
0
0
0
0
0
0
0
0
0
0
0
0
0
0
0
0
0
0
0
0
0
0
0
0
0
0
0
0
0
0
0
0
0
0
0
0
0
0
0
0
0
0
0
0
0
0
0
0
0
0
0
0
0
0
0
0
0
0
0
0
0
0
0
0
0
0
0
0
0
0
0
0
0
0
0
0
0
0
0
0
0
0
0
0
0
0
0
0
0
0
0
0
0
0
0
0
0
0
0
0
0
0
0
0
0
0
0
0
0
0
0
0
0
0
0
0
0
0
0
0
0
0
0
0
0
0
0
0
0
0
0
0
0
0
0
0
0
0
0
0
0
0
0
0
0
0
0
0
0
0
0
0
0
0
0
0
0
0
0
0
0
0
0
0
0
0
0
0
0
0
0

