# vtk DataFile Version 3.0
Lines and points representing subcelluar element cells 
ASCII

DATASET UNSTRUCTURED_GRID
POINTS 83 float
25.0082 25 0
25.0046 25.0111 0
24.9889 25.0226 0
24.9706 25.0227 0
24.9591 25.0143 0
24.9545 25.0002 0
24.959 24.9863 0
24.9705 24.9779 0
24.989 24.9778 0
25.0046 24.9892 0
24.599 24.2624 0
24.5929 24.2814 0
24.5768 24.2933 0
24.5689 24.2934 0
24.5612 24.2878 0
24.5548 24.2688 0
24.5609 24.2497 0
24.577 24.2379 0
24.5849 24.2378 0
24.5927 24.2434 0
24.6118 25.7411 0
24.6069 25.7563 0
24.5965 25.7639 0
24.5834 25.7639 0
24.5671 25.7522 0
24.5609 25.7332 0
24.5666 25.7156 0
24.5737 25.7104 0
24.5893 25.7104 0
24.6055 25.7221 0
25.4656 24.2632 0
25.4597 24.2814 0
25.4461 24.2912 0
25.4303 24.2911 0
25.4166 24.2811 0
25.4107 24.263 0
25.4168 24.2442 0
25.4307 24.2342 0
25.4455 24.2342 0
25.4595 24.2444 0
25.4524 25.7151 0
25.4467 25.7323 0
25.4306 25.7439 0
25.4153 25.7438 0
25.4066 25.7374 0
25.4013 25.7208 0
25.4072 25.7029 0
25.4202 25.6935 0
25.4363 25.6936 0
25.4484 25.7024 0
24.1926 24.9848 0
24.1908 24.9905 0
24.1778 25 0
24.1584 25 0
24.1439 24.9895 0
24.1411 24.9813 0
24.1432 24.9749 0
24.1552 24.9661 0
24.1748 24.966 0
24.19 24.977 0
25.8276 24.9866 0
25.8239 25.0008 0
25.8184 25.0052 0
25.8116 25.0056 0
25.8004 24.9984 0
25.7946 24.9832 0
25.7974 24.9725 0
25.8054 24.966 0
25.8144 24.9656 0
25.8211 24.9699 0
25.2002 25.2374 0
25.1909 24.7548 0
25.1031 24.1691 0
25.1962 24.5234 0
25.5609 26.0122 0
25.1164 25.8173 0
23.9245 24.7412 0
23.9023 25.177 0
24.2747 24.6604 0
24.2459 25.3122 0
25.8822 24.653 0
26.1274 24.92 0
26.2565 25.2219 0

CELLS 78 234
2 70 71
2 72 73
2 74 75
2 76 77
2 76 78
2 79 77
2 80 81
2 82 81
2 0 1
2 1 2
2 2 3
2 3 4
2 4 5
2 5 6
2 6 7
2 7 8
2 8 9
2 9 0
2 10 11
2 11 12
2 12 13
2 13 14
2 14 15
2 15 16
2 16 17
2 17 18
2 18 19
2 19 10
2 20 21
2 21 22
2 22 23
2 23 24
2 24 25
2 25 26
2 26 27
2 27 28
2 28 29
2 29 20
2 30 31
2 31 32
2 32 33
2 33 34
2 34 35
2 35 36
2 36 37
2 37 38
2 38 39
2 39 30
2 40 41
2 41 42
2 42 43
2 43 44
2 44 45
2 45 46
2 46 47
2 47 48
2 48 49
2 49 40
2 50 51
2 51 52
2 52 53
2 53 54
2 54 55
2 55 56
2 56 57
2 57 58
2 58 59
2 59 50
2 60 61
2 61 62
2 62 63
2 63 64
2 64 65
2 65 66
2 66 67
2 67 68
2 68 69
2 69 60
CELL_TYPES 78
3
3
3
3
3
3
3
3
3
3
3
3
3
3
3
3
3
3
3
3
3
3
3
3
3
3
3
3
3
3
3
3
3
3
3
3
3
3
3
3
3
3
3
3
3
3
3
3
3
3
3
3
3
3
3
3
3
3
3
3
3
3
3
3
3
3
3
3
3
3
3
3
3
3
3
3
3
3
POINT_DATA 83
SCALARS relative_tension float
LOOKUP_TABLE default
0
0
0
0
0
0
0
0
0
0
0
0
0
0
0
0
0
0
0
0
0
0
0
0
0
0
0
0
0
0
0
0
0
0
0
0
0
0
0
0
0
0
0
0
0
0
0
0
0
0
0
0
0
0
0
0
0
0
0
0
0
0
0
0
0
0
0
0
0
0
0
0
0
0
0
0
0
0
0
0
0
0
0

