# vtk DataFile Version 3.0
Lines and points representing subcelluar element cells 
ASCII

DATASET UNSTRUCTURED_GRID
POINTS 56 float
25.0425 24.9931 0
25.0348 25.011 0
25.0256 25.0146 0
25.0089 25.0073 0
25.0015 24.9887 0
25.0094 24.9705 0
25.018 24.9671 0
25.0351 24.9745 0
24.5847 24.2989 0
24.5817 24.3056 0
24.5641 24.3125 0
24.5458 24.3044 0
24.5388 24.2865 0
24.5419 24.2794 0
24.5593 24.2727 0
24.5776 24.2808 0
24.5807 25.7277 0
24.573 25.7462 0
24.5555 25.7535 0
24.5445 25.7489 0
24.5371 25.7312 0
24.5448 25.7127 0
24.5624 25.7054 0
24.5733 25.7099 0
25.4484 24.2568 0
25.441 24.2747 0
25.4225 24.2824 0
25.4043 24.2748 0
25.3981 24.2598 0
25.4055 24.2418 0
25.424 24.2342 0
25.4421 24.2417 0
25.4689 25.7429 0
25.4609 25.7613 0
25.4429 25.7684 0
25.4341 25.7646 0
25.4273 25.7475 0
25.4353 25.7292 0
25.4536 25.7219 0
25.462 25.7255 0
24.199 25.0073 0
24.1919 25.026 0
24.1749 25.0337 0
24.168 25.0311 0
24.1599 25.0131 0
24.1669 24.9943 0
24.1835 24.9868 0
24.191 24.9896 0
25.8817 24.9978 0
25.8742 25.016 0
25.86 25.0219 0
25.8427 25.0147 0
25.8351 24.9962 0
25.8428 24.9777 0
25.8566 24.972 0
25.8741 24.9793 0

CELLS 56 168
2 0 1
2 1 2
2 2 3
2 3 4
2 4 5
2 5 6
2 6 7
2 7 0
2 8 9
2 9 10
2 10 11
2 11 12
2 12 13
2 13 14
2 14 15
2 15 8
2 16 17
2 17 18
2 18 19
2 19 20
2 20 21
2 21 22
2 22 23
2 23 16
2 24 25
2 25 26
2 26 27
2 27 28
2 28 29
2 29 30
2 30 31
2 31 24
2 32 33
2 33 34
2 34 35
2 35 36
2 36 37
2 37 38
2 38 39
2 39 32
2 40 41
2 41 42
2 42 43
2 43 44
2 44 45
2 45 46
2 46 47
2 47 40
2 48 49
2 49 50
2 50 51
2 51 52
2 52 53
2 53 54
2 54 55
2 55 48
CELL_TYPES 56
3
3
3
3
3
3
3
3
3
3
3
3
3
3
3
3
3
3
3
3
3
3
3
3
3
3
3
3
3
3
3
3
3
3
3
3
3
3
3
3
3
3
3
3
3
3
3
3
3
3
3
3
3
3
3
3
POINT_DATA 56
SCALARS relative_tension float
LOOKUP_TABLE default
0
0
0
0
0
0
0
0
0
0
0
0
0
0
0
0
0
0
0
0
0
0
0
0
0
0
0
0
0
0
0
0
0
0
0
0
0
0
0
0
0
0
0
0
0
0
0
0
0
0
0
0
0
0
0
0

